1152 
72   

1    
  0.0099999400692739   0.0000000000000000   0.0000346209608420
  -0.2274830100    0.0158052500   -0.0383241500
   0.0000026500    0.0001999300    0.0002092500
   0.0000019500    0.0001941800    0.0002452800
  -0.0000003900    0.0002078400    0.0002083700
  -0.0000075700    0.0002066700    0.0002056900
  -0.0000026400    0.0002086000    0.0002059200
   0.0000021200    0.0002349400    0.0002552400
  -0.0000004400    0.0002067600    0.0002079900
  -0.0000043200    0.0002112800    0.0002040400
  -0.0000005500    0.0002076400    0.0002053600
  -0.0000099600    0.0002095900    0.0002049800
  -0.0000016300    0.0002075500    0.0002052800
  -0.0000048800    0.0002095900    0.0002054500
  -0.0000031000    0.0002083900    0.0002058500
  -0.0000047600    0.0002104600    0.0002043300
  -0.0000020000    0.0002081100    0.0002052700
  -0.0000042600    0.0002085900    0.0002043000
  -0.0000005400    0.0002091600    0.0002041200
  -0.0000046300    0.0002085000    0.0002048400
  -0.0000020400    0.0002067500    0.0002014300
  -0.0000048200    0.0002089900    0.0002055200
  -0.0000031300    0.0002089100    0.0002042600
  -0.0000100300    0.0002094600    0.0002050100
  -0.0000016400    0.0002108500    0.0002064600
  -0.0001411600    0.0002721600   -0.0003270400
   0.0000213000    0.0002128400   -0.0002058900
   0.0000017200    0.0002077300   -0.0001988400
   0.0000031100    0.0002105400   -0.0002016700
   0.0000017500    0.0002130800   -0.0002072200
   0.0000032000    0.0002109300   -0.0002051600
  -0.0001406200    0.0002874100   -0.0002846000
   0.0000214300    0.0002110800   -0.0002023300
   0.0000054200    0.0002497000   -0.0002485900
   0.0000069900    0.0002089800   -0.0002030300
   0.0000030900    0.0002058400   -0.0002093200
   0.0000042800    0.0002079800   -0.0002037600
   0.0000028900    0.0002031800   -0.0002034200
   0.0000043600    0.0002095200   -0.0002050500
   0.0000047700    0.0001887700   -0.0002237200
   0.0000070100    0.0002126900   -0.0002060400
   0.0000046300    0.0002089200   -0.0002063000
   0.0000052800    0.0002085500   -0.0002083100
   0.0000047100    0.0002086700   -0.0002056700
   0.0000046800    0.0002089300   -0.0002070200
   0.0000047600    0.0002082500   -0.0002052900
   0.0000047700    0.0002082200   -0.0002056600
   0.0000047900    0.0002083700   -0.0002057400
   0.0000052000    0.0002077100   -0.0002066400
   0.0000057700   -0.0002074000   -0.0002031400
   0.0000085900   -0.0002084100   -0.0002128300
   0.0000049600   -0.0002091200   -0.0002053100
   0.0000040600   -0.0002065500   -0.0002059100
   0.0000043900   -0.0002087400   -0.0002049800
   0.0000039700   -0.0002088600   -0.0002053600
   0.0000271600   -0.0002112700   -0.0001963400
   0.0000069700   -0.0002107500   -0.0002107500
   0.0023625900    0.0008197700    0.0016864300
   0.0000249400   -0.0002124400   -0.0001968600
  -0.0000115900   -0.0001939100   -0.0002078500
   0.0000114200   -0.0002158400   -0.0002067800
   0.0000025600   -0.0002047700   -0.0002095400
   0.0000035800   -0.0002099900   -0.0002047700
   0.0010512000   -0.0017832300    0.0007587900
   0.0000016600   -0.0002083800   -0.0001987800
   0.0000042300   -0.0002100600   -0.0002084600
   0.0000057900   -0.0002087700   -0.0002068200
   0.0000012000   -0.0002063900   -0.0002059600
   0.0000058200   -0.0002087900   -0.0002063100
   0.0000045300   -0.0002086600   -0.0002074600
   0.0000049300   -0.0002087000   -0.0002068300
   0.0000047200   -0.0002094300   -0.0002083600
   0.0000051800   -0.0002084300   -0.0002072000
   0.0001691800   -0.0004322800    0.0002777800
   0.0000010000   -0.0002033000    0.0001995800
  -0.0000058400   -0.0001999700    0.0002013400
   0.0000041800   -0.0002042500    0.0002051500
  -0.0000081000   -0.0002078900    0.0002048900
  -0.0000017400   -0.0002103100    0.0002068900
  -0.0000051900   -0.0002144000    0.0001985600
  -0.0000019600   -0.0002092500    0.0002024700
   0.0001657700   -0.0003592600    0.0000894700
   0.0000010600   -0.0002073500    0.0002113400
  -0.0000056400   -0.0002384700    0.0002097000
   0.0000042300   -0.0002043400    0.0002076700
  -0.0000081700   -0.0002092800    0.0002045700
  -0.0000018400   -0.0002065500    0.0002057400
  -0.0000051600   -0.0002018400    0.0001952500
  -0.0000019700   -0.0002077400    0.0002065100
  -0.0000047200   -0.0002088100    0.0002035900
  -0.0000020200   -0.0002076900    0.0002027600
  -0.0000040900   -0.0002094100    0.0002045100
  -0.0000022500   -0.0002092200    0.0002041200
  -0.0000040000   -0.0002089800    0.0002043000
  -0.0000029600   -0.0002093100    0.0002045600
  -0.0000041500   -0.0002084300    0.0002034900
  -0.0000030000   -0.0002081600    0.0002032200
   0.0775176400    0.0582278400    0.0441994500
  -0.0000558000    0.0000596600    0.0000195100
  -0.0000738600    0.0000424700    0.0000532200
  -0.0000518000    0.0000809600    0.0000324100
  -0.0000599400    0.0000812700    0.0000319400
  -0.0000583200    0.0000850300    0.0000333800
   0.0000474300    0.0000801500    0.0000894700
  -0.0000616600    0.0000836000    0.0000297200
  -0.0000693900    0.0000827600    0.0000340500
  -0.0000620700    0.0000809100    0.0000316400
  -0.0000623000    0.0000838900    0.0000287800
  -0.0000628900    0.0000811500    0.0000314500
  -0.0000637100    0.0000823900    0.0000319000
  -0.0000628600    0.0000823200    0.0000314700
  -0.0000656200    0.0000825400    0.0000327500
  -0.0000625000    0.0000816900    0.0000316300
  -0.0000642500    0.0000778200    0.0000315400
  -0.0000695300    0.0000783700    0.0000294400
  -0.0000623800    0.0000819800    0.0000314700
  -0.0000643600    0.0000805000    0.0000327100
  -0.0000632700    0.0000820400    0.0000311100
  -0.0000632900    0.0000826800    0.0000325400
  -0.0000591700    0.0000784300    0.0000293400
  -0.0000679600    0.0000820800    0.0000304300
   0.0000264500    0.0000353300   -0.0000522400
   0.0000685900    0.0000890000   -0.0000306600
   0.0000716700    0.0000762700   -0.0000307200
   0.0000549400    0.0000866700   -0.0000396700
   0.0000692600    0.0000827200   -0.0000331900
   0.0000657700    0.0000835300   -0.0000320600
   0.0009318600   -0.0006598700   -0.0015022000
   0.0000806700    0.0000859600   -0.0000260200
   0.0000907600    0.0000852600    0.0000190600
   0.0000658700    0.0000882500   -0.0000368600
   0.0000665500    0.0000813900   -0.0000238400
   0.0000631900    0.0000834000   -0.0000340300
   0.0000553900    0.0000825100   -0.0000333900
   0.0000632500    0.0000845400   -0.0000331100
   0.0000343400    0.0000435900   -0.0000335700
   0.0000672300    0.0000873500   -0.0000332900
   0.0000612400    0.0000837900   -0.0000316400
   0.0000569000    0.0000863000   -0.0000331300
   0.0000618400    0.0000832000   -0.0000316700
   0.0000597000    0.0000850100   -0.0000328200
   0.0000618300    0.0000825900   -0.0000312600
   0.0000616600    0.0000834600   -0.0000316500
   0.0000620700    0.0000825100   -0.0000311300
   0.0000600800    0.0000846000   -0.0000316900
   0.0000636700   -0.0000809800   -0.0000264400
   0.0000550000   -0.0000890800   -0.0000313400
   0.0000654000   -0.0000815700   -0.0000309800
   0.0000630400   -0.0000830400   -0.0000296000
   0.0000636100   -0.0000819400   -0.0000315700
   0.0000611800   -0.0000836200   -0.0000325400
   0.0000692700   -0.0000706000   -0.0000227600
   0.0000538300   -0.0000885300   -0.0000345500
   0.0007181200    0.0084585800    0.0065249400
   0.0000826800   -0.0000846700   -0.0000288700
   0.0000329200   -0.0000751500   -0.0000502900
   0.0000751100   -0.0000852700   -0.0000293300
   0.0000698300   -0.0000795700   -0.0000244200
   0.0000652000   -0.0000833600   -0.0000322800
   0.0003776800    0.0002305200    0.0001232700
   0.0000583900   -0.0000846400   -0.0000404600
   0.0000609500   -0.0000830600   -0.0000272500
   0.0000606700   -0.0000861000   -0.0000332700
   0.0000581300   -0.0000835700   -0.0000321400
   0.0000617700   -0.0000844000   -0.0000320600
   0.0000614800   -0.0000833800   -0.0000307000
   0.0000614700   -0.0000839100   -0.0000319200
   0.0000613300   -0.0000836800   -0.0000293200
   0.0000604600   -0.0000848800   -0.0000326200
   0.0000727600   -0.0005960700   -0.0009485900
  -0.0000632600   -0.0000656600    0.0000247500
  -0.0000580400   -0.0001060600    0.0000521500
  -0.0000665700   -0.0000677400    0.0000243600
  -0.0000608300   -0.0000815000    0.0000311700
  -0.0000662800   -0.0000839800    0.0000314600
  -0.0000512300   -0.0000870200    0.0000435500
  -0.0000576500   -0.0000862000    0.0000361100
  -0.0001230000    0.0000240300    0.0001786300
  -0.0000532300   -0.0000836000    0.0000333300
  -0.0000364200   -0.0001349100    0.0000726100
  -0.0000536800   -0.0000794700    0.0000308000
  -0.0000650600   -0.0000823900    0.0000310900
  -0.0000606700   -0.0000820600    0.0000309700
  -0.0000728900   -0.0000785400    0.0000257100
  -0.0000597700   -0.0000838700    0.0000325300
  -0.0000651400   -0.0000809800    0.0000315000
  -0.0000657800   -0.0000802700    0.0000320500
  -0.0000646400   -0.0000822800    0.0000321400
  -0.0000660100   -0.0000815500    0.0000320000
  -0.0000644300   -0.0000819600    0.0000320800
  -0.0000647700   -0.0000823000    0.0000322000
  -0.0000646400   -0.0000811100    0.0000320000
  -0.0000644700   -0.0000812000    0.0000322400
   0.0990574400   -0.0649622300   -0.0174882200
   0.0000393800    0.0000296000    0.0001084400
   0.0001386100   -0.0000304400    0.0000328500
   0.0000145900    0.0000234500    0.0001044800
   0.0000286700    0.0000104600    0.0000967500
   0.0000202900    0.0000157800    0.0001019100
  -0.0000346600   -0.0000935400    0.0000038800
   0.0000251000    0.0000177400    0.0001021000
   0.0000376600    0.0000015600    0.0000990900
   0.0000226500    0.0000194100    0.0001031500
   0.0000340900    0.0000061400    0.0001033600
   0.0000218400    0.0000185000    0.0001024900
   0.0000279600    0.0000111300    0.0001009200
   0.0000251800    0.0000146700    0.0001014500
   0.0000286300    0.0000088400    0.0001010700
   0.0000247300    0.0000162200    0.0001023400
   0.0000315700    0.0000093800    0.0001003300
   0.0000309400    0.0000152200    0.0001046300
   0.0000263800    0.0000118200    0.0001009900
   0.0000246300    0.0000138500    0.0001042200
   0.0000271100    0.0000116500    0.0001007100
   0.0000250300    0.0000130900    0.0001023200
   0.0000287000    0.0000072500    0.0000957800
   0.0000299200    0.0000139200    0.0001025600
   0.0000169300   -0.0000837600    0.0001058400
  -0.0000696300   -0.0000393300   -0.0000866100
  -0.0000333300    0.0000095100   -0.0001034500
  -0.0000191500    0.0000141400   -0.0001028600
  -0.0000274200    0.0000139800   -0.0001039900
  -0.0000264300    0.0000129600   -0.0001018100
   0.0000436100    0.0000736100   -0.0000369700
  -0.0000297000   -0.0000121000   -0.0000915700
  -0.0000456500    0.0000867000   -0.0001056600
  -0.0000242200    0.0000056500   -0.0000972000
  -0.0000283000    0.0000134600   -0.0001019800
  -0.0000259800    0.0000113100   -0.0001002600
  -0.0000235800    0.0000160700   -0.0001016000
  -0.0000242200    0.0000118200   -0.0001001800
  -0.0000309500    0.0000135400   -0.0001152800
  -0.0000245600    0.0000079800   -0.0000981900
  -0.0000259000    0.0000127100   -0.0001000600
  -0.0000215300    0.0000143600   -0.0000985600
  -0.0000259500    0.0000122100   -0.0001003500
  -0.0000228900    0.0000139200   -0.0000995300
  -0.0000262800    0.0000125600   -0.0001005600
  -0.0000252500    0.0000124200   -0.0000996100
  -0.0000263400    0.0000120700   -0.0000998700
  -0.0000256400    0.0000124800   -0.0000987300
  -0.0000308800   -0.0000104000   -0.0001008700
  -0.0000260600   -0.0000106700   -0.0000955200
  -0.0000281900   -0.0000105000   -0.0001005600
  -0.0000289600   -0.0000114500   -0.0000983700
  -0.0000260700   -0.0000117800   -0.0001014300
  -0.0000239100   -0.0000133200   -0.0001009000
  -0.0000461900   -0.0000061800   -0.0001214600
  -0.0000226600   -0.0000110000   -0.0000979600
   0.0014850500    0.0005933600    0.0007298700
  -0.0000393100    0.0000165100   -0.0000854600
  -0.0000336900   -0.0000594200   -0.0001249800
  -0.0000325300   -0.0000029100   -0.0000983700
  -0.0000337300   -0.0000114200   -0.0001006900
  -0.0000258600   -0.0000122400   -0.0001016400
  -0.0004755100   -0.0001823100    0.0004562500
  -0.0000219500   -0.0000121500   -0.0001037300
  -0.0000255300   -0.0000166500   -0.0001013600
  -0.0000233700   -0.0000110000   -0.0000982300
  -0.0000258000   -0.0000164200   -0.0001023700
  -0.0000240900   -0.0000114900   -0.0000990700
  -0.0000262000   -0.0000132900   -0.0000999500
  -0.0000249000   -0.0000124200   -0.0000995800
  -0.0000254600   -0.0000135300   -0.0000999700
  -0.0000241200   -0.0000122200   -0.0000988300
   0.0000849600    0.0005987800    0.0005099100
   0.0000295300   -0.0000217900    0.0001102600
   0.0000728400    0.0000200900    0.0001151000
   0.0000462100   -0.0000233900    0.0001095600
   0.0000257500   -0.0000102400    0.0000988000
   0.0000275700   -0.0000142400    0.0001020400
   0.0000182400   -0.0000150500    0.0001034200
   0.0000175200   -0.0000150300    0.0001039400
   0.0001888900    0.0000352800    0.0000765400
   0.0000115800   -0.0000289700    0.0001018000
   0.0000698400    0.0000630400    0.0000462300
   0.0000237300   -0.0000274200    0.0001037000
   0.0000302800   -0.0000061800    0.0000977400
   0.0000250300   -0.0000166000    0.0001012900
   0.0000412900   -0.0000061800    0.0001049200
   0.0000193800   -0.0000188500    0.0001016600
   0.0000289300   -0.0000104700    0.0001017500
   0.0000267200   -0.0000138500    0.0001030800
   0.0000280100   -0.0000113500    0.0001013800
   0.0000266200   -0.0000140000    0.0001026500
   0.0000274600   -0.0000117100    0.0001014100
   0.0000265600   -0.0000131000    0.0001019900
   0.0000282000   -0.0000114100    0.0001018600
   0.0000259800   -0.0000132700    0.0001024300
   0.0128218200   -0.0211356100   -0.0070886700
   0.0000122800    0.0000321500   -0.0000100000
   0.0000332000    0.0000737600    0.0000228000
   0.0000233800    0.0000284200   -0.0000086200
   0.0000298200    0.0000344600   -0.0000034800
   0.0000290200    0.0000324400   -0.0000054200
  -0.0000258900    0.0002549600   -0.0001388600
   0.0000272200    0.0000345500   -0.0000045400
   0.0000409100    0.0000395800    0.0000004800
   0.0000290100    0.0000340200   -0.0000049800
   0.0000313300    0.0000385500   -0.0000016500
   0.0000301900    0.0000350800   -0.0000037100
   0.0000317000    0.0000357300   -0.0000028100
   0.0000306700    0.0000347500   -0.0000037200
   0.0000341800    0.0000363900   -0.0000019800
   0.0000295700    0.0000350100   -0.0000040500
   0.0000298900    0.0000366600   -0.0000029400
   0.0000288800    0.0000368800   -0.0000029100
   0.0000302900    0.0000350200   -0.0000035700
   0.0000293300    0.0000341300   -0.0000039500
   0.0000317900    0.0000355500   -0.0000031900
   0.0000311900    0.0000349900   -0.0000035100
   0.0000470800    0.0000391400    0.0000043100
   0.0000313400    0.0000373600   -0.0000023900
  -0.0001059000    0.0000702000   -0.0000125200
  -0.0000364200    0.0000499300   -0.0000120400
  -0.0000883900   -0.0000013100    0.0000003700
  -0.0000356600    0.0000294200    0.0000029800
  -0.0000316800    0.0000374500    0.0000016900
  -0.0000290300    0.0000320900    0.0000052900
  -0.0000279200    0.0000383000    0.0000021400
  -0.0000351200    0.0000354800    0.0000024300
   0.0000299000    0.0000106500    0.0000376800
  -0.0000429900    0.0000369500   -0.0000006600
   0.0000154800    0.0000505000    0.0000611900
  -0.0000395400    0.0000370700    0.0000002300
  -0.0000283400    0.0000344800    0.0000036600
  -0.0000324500    0.0000355700    0.0000023300
  -0.0000174800    0.0000301800    0.0000088700
  -0.0000339600    0.0000348000    0.0000024400
  -0.0000284200    0.0000344100    0.0000039400
  -0.0000313100    0.0000339000    0.0000037200
  -0.0000290200    0.0000343600    0.0000037800
  -0.0000298400    0.0000330800    0.0000042900
  -0.0000297100    0.0000346100    0.0000035200
  -0.0000301800    0.0000338600    0.0000038400
  -0.0000291000    0.0000346300    0.0000036800
  -0.0000308500    0.0000347600    0.0000032900
  -0.0000291800   -0.0000359800    0.0000039600
  -0.0000319700   -0.0000332100    0.0000033400
  -0.0000311000   -0.0000359200    0.0000028300
  -0.0000338900   -0.0000353200    0.0000034900
  -0.0000303900   -0.0000349400    0.0000036000
  -0.0000306700   -0.0000345700    0.0000040200
  -0.0000274400   -0.0000418400    0.0000027900
  -0.0000285900   -0.0000314600    0.0000055700
   0.0065838900    0.0166172300    0.0098028700
  -0.0000477700   -0.0000482300   -0.0000056200
   0.0000223600   -0.0000363600    0.0000156700
  -0.0000438300   -0.0000388300   -0.0000021500
  -0.0000294500   -0.0000376900    0.0000020700
  -0.0000342200   -0.0000357100    0.0000024100
   0.0001129500   -0.0002104100   -0.0001604300
  -0.0000317200   -0.0000334500    0.0000041500
  -0.0000229800   -0.0000326800    0.0000061800
  -0.0000339400   -0.0000343900    0.0000030500
  -0.0000180900   -0.0000328600    0.0000074800
  -0.0000337300   -0.0000342600    0.0000031400
  -0.0000288300   -0.0000346900    0.0000041100
  -0.0000315500   -0.0000346300    0.0000034700
  -0.0000281600   -0.0000340500    0.0000043100
  -0.0000318000   -0.0000345800    0.0000033600
  -0.0000963200    0.0000646400   -0.0000696400
   0.0000153600   -0.0000393400   -0.0000045500
   0.0000328900   -0.0000346600   -0.0000027700
   0.0000309700   -0.0000363000   -0.0000026000
   0.0000273900   -0.0000342500   -0.0000043800
   0.0000294200   -0.0000319100   -0.0000052400
   0.0003801400    0.0003713500    0.0008305000
   0.0000179800   -0.0000309900   -0.0000079200
   0.0001401500   -0.0000612400    0.0000359900
   0.0000239900   -0.0000296200   -0.0000086900
   0.0000388500   -0.0000356500   -0.0000010300
   0.0000280400   -0.0000339000   -0.0000047300
   0.0000323000   -0.0000411300    0.0000004000
   0.0000296700   -0.0000338700   -0.0000040600
   0.0000199000   -0.0000560100    0.0000324200
   0.0000264500   -0.0000309600   -0.0000066100
   0.0000322300   -0.0000362500   -0.0000021800
   0.0000314400   -0.0000362300   -0.0000023800
   0.0000314000   -0.0000357500   -0.0000026700
   0.0000318100   -0.0000354700   -0.0000027000
   0.0000312700   -0.0000358600   -0.0000026200
   0.0000307200   -0.0000350400   -0.0000029900
   0.0000322500   -0.0000363400   -0.0000020700
   0.0000307200   -0.0000357100   -0.0000026700
   0.0000513400   -0.0000044300   -0.0000791000
   0.0000477200   -0.0000079800   -0.0000789300
   0.0000501500   -0.0000061900   -0.0000801300
   0.0000488000   -0.0000062200   -0.0000790200
   0.0000497900   -0.0000064700   -0.0000808900
   0.0000495700   -0.0000071800   -0.0000809400
   0.0000386700   -0.0000191800   -0.0000681100
   0.0000480600   -0.0000085800   -0.0000809800
  -0.0023383200    0.0007288600    0.0006102200
   0.0000472400   -0.0000044900   -0.0000841300
   0.0000559400   -0.0000286600   -0.0000803800
   0.0000497000   -0.0000064800   -0.0000820300
   0.0000515500   -0.0000053400   -0.0000781500
   0.0000495800   -0.0000072600   -0.0000823400
   0.0004840700    0.0002463000   -0.0001420500
   0.0000498200   -0.0000069600   -0.0000851100
   0.0000503100   -0.0000051600   -0.0000807700
   0.0000476700   -0.0000086300   -0.0000800300
   0.0000497700   -0.0000078100   -0.0000806100
   0.0000501800   -0.0000052500   -0.0000790100
   0.0000496200   -0.0000075900   -0.0000796200
   0.0000492800   -0.0000077100   -0.0000799100
   0.0000491100   -0.0000072200   -0.0000798300
   0.0000488700   -0.0000084600   -0.0000797700
  -0.0000669900    0.0000079000    0.0000969500
  -0.0000754200    0.0000251000    0.0000722400
  -0.0000395900   -0.0000326600    0.0000774100
  -0.0000361000   -0.0000373400    0.0000926900
  -0.0000487600   -0.0000057900    0.0000790300
  -0.0000497800   -0.0000090500    0.0000812200
  -0.0000502000   -0.0000093600    0.0000827300
  -0.0000489400   -0.0000081200    0.0000837700
  -0.0000671900    0.0000339800    0.0000554100
  -0.0000473500   -0.0000117000    0.0000772500
  -0.0001147900   -0.0000338000    0.0001206200
  -0.0000497800   -0.0000081500    0.0000757400
  -0.0000494900   -0.0000046300    0.0000794700
  -0.0000495300   -0.0000073900    0.0000790000
  -0.0000493000    0.0000052000    0.0000746600
  -0.0000486600   -0.0000086200    0.0000804500
  -0.0000505300   -0.0000047100    0.0000810400
  -0.0000500600   -0.0000059200    0.0000810800
  -0.0000509900   -0.0000061700    0.0000812200
  -0.0000504400   -0.0000070000    0.0000808800
  -0.0000501100   -0.0000063300    0.0000808300
  -0.0000503400   -0.0000068100    0.0000807400
  -0.0000504400   -0.0000056300    0.0000807900
  -0.0000504600   -0.0000055600    0.0000807900
  -0.0020315100    0.0006643000   -0.0001685100
  -0.0000600700    0.0000071000    0.0000687300
  -0.0000202200   -0.0000076700   -0.0000045200
  -0.0000462200   -0.0000023500    0.0000757600
  -0.0000481500    0.0000050600    0.0000761700
  -0.0000490400    0.0000077800    0.0000816500
  -0.0001473600    0.0000847300    0.0000109400
  -0.0000487700    0.0000086700    0.0000798700
  -0.0000517200    0.0000046400    0.0000845000
  -0.0000496900    0.0000073400    0.0000800200
  -0.0000537400   -0.0000030000    0.0000842900
  -0.0000497000    0.0000077000    0.0000800800
  -0.0000507600    0.0000061400    0.0000809100
  -0.0000495800    0.0000073200    0.0000805700
  -0.0000508400    0.0000060800    0.0000824000
  -0.0000499600    0.0000071200    0.0000805200
  -0.0000497700    0.0000055200    0.0000801800
  -0.0000529300    0.0000034000    0.0000808800
  -0.0000504000    0.0000056100    0.0000804200
  -0.0000497300    0.0000034700    0.0000828600
  -0.0000501000    0.0000064000    0.0000804900
  -0.0000504500    0.0000067800    0.0000819100
  -0.0000497600    0.0000041700    0.0000814500
  -0.0000496000    0.0000100700    0.0000821800
   0.0002303000   -0.0000586900   -0.0002393900
   0.0000482100    0.0000043300   -0.0000808400
   0.0000502700    0.0000053700   -0.0000782600
   0.0000495500    0.0000076400   -0.0000834500
   0.0000519100    0.0000089300   -0.0000829100
   0.0000498900    0.0000071200   -0.0000817100
  -0.0003180000   -0.0000329000    0.0003265900
   0.0000489100    0.0000035500   -0.0000794400
   0.0000766400   -0.0000188100   -0.0000814100
   0.0000465500    0.0000101800   -0.0000828500
   0.0000499400    0.0000046700   -0.0000812400
   0.0000488300    0.0000079100   -0.0000807000
   0.0000493900    0.0000055500   -0.0000796200
   0.0000503500    0.0000051300   -0.0000796400
   0.0000743900    0.0000235500   -0.0000735800
   0.0000501800    0.0000060600   -0.0000800200
   0.0000501800    0.0000074800   -0.0000794000
   0.0000485600    0.0000084600   -0.0000790200
   0.0000497600    0.0000070100   -0.0000798000
   0.0000483700    0.0000079900   -0.0000796000
   0.0000496400    0.0000069300   -0.0000795500
   0.0000487500    0.0000070600   -0.0000795000
   0.0000493200    0.0000073000   -0.0000788000
   0.0000485500    0.0000070500   -0.0000786700
   0.0013726100   -0.0031771600   -0.0016330400
   0.0001020800   -0.0000109900   -0.0000665900
   0.0000806100   -0.0000136300   -0.0000722700
   0.0000993000   -0.0000240800   -0.0000689100
   0.0000930500   -0.0000245500   -0.0000673200
   0.0000938100   -0.0000225000   -0.0000671800
   0.0002218600   -0.0000339100   -0.0000769600
   0.0000947200   -0.0000169600   -0.0000689400
   0.0000920200   -0.0000195200   -0.0000673700
   0.0000973400   -0.0000253800   -0.0000609500
   0.0000943100   -0.0000233300   -0.0000655700
   0.0000995200   -0.0000256800   -0.0000651900
   0.0000950100   -0.0000241100   -0.0000656700
   0.0000955800   -0.0000239500   -0.0000644300
   0.0000950900   -0.0000237200   -0.0000661800
   0.0000961700   -0.0000241000   -0.0000625400
   0.0000946200   -0.0000241400   -0.0000642400
   0.0000972200   -0.0000231400   -0.0000629100
   0.0000949200   -0.0000246000   -0.0000663200
   0.0000957200   -0.0000237500   -0.0000647400
   0.0000955300   -0.0000236200   -0.0000665200
   0.0000954600   -0.0000235900   -0.0000658900
   0.0000971300   -0.0000285700   -0.0000601400
   0.0000966100   -0.0000229500   -0.0000643500
  -0.0000805100   -0.0000493100    0.0000936200
  -0.0001108000   -0.0000356900    0.0001221000
  -0.0000927100   -0.0000288000    0.0000698400
  -0.0000341900    0.0000162000    0.0000678200
  -0.0000948100   -0.0000226300    0.0000645300
  -0.0000946100   -0.0000254900    0.0000664300
  -0.0000976500   -0.0000258600    0.0000646700
  -0.0000982500   -0.0000236300    0.0000649400
  -0.0000891000   -0.0000429300    0.0000772800
  -0.0000986600   -0.0000275000    0.0000620400
  -0.0000978800   -0.0000352900    0.0000835200
  -0.0000906900   -0.0000257500    0.0000604600
  -0.0000965000   -0.0000236200    0.0000665700
  -0.0000940100   -0.0000234300    0.0000648700
  -0.0000946400   -0.0000286100    0.0000710100
  -0.0000949400   -0.0000232100    0.0000657700
  -0.0000948400   -0.0000233900    0.0000688700
  -0.0000938700   -0.0000223400    0.0000678200
  -0.0000945700   -0.0000234200    0.0000684400
  -0.0000945800   -0.0000244500    0.0000675300
  -0.0000948400   -0.0000237900    0.0000676100
  -0.0000951300   -0.0000241400    0.0000671500
  -0.0000950800   -0.0000240100    0.0000681500
  -0.0000950200   -0.0000232000    0.0000678700
  -0.0000946100    0.0000231900    0.0000675100
  -0.0000956500    0.0000213700    0.0000731300
  -0.0000952900    0.0000244200    0.0000683900
  -0.0000943700    0.0000196900    0.0000681800
  -0.0000953700    0.0000242500    0.0000670200
  -0.0000954300    0.0000237600    0.0000672200
  -0.0000948800    0.0000209700    0.0000645100
  -0.0000908900    0.0000241900    0.0000670700
   0.0003343700   -0.0003883700   -0.0001072200
  -0.0000565600    0.0000410200    0.0000370300
  -0.0001166800    0.0000574300    0.0000536100
  -0.0001270600    0.0000471700    0.0000761800
  -0.0000955900    0.0000240600    0.0000633900
  -0.0000964900    0.0000233900    0.0000660700
  -0.0000071300   -0.0000019200    0.0000841700
  -0.0000957000    0.0000227700    0.0000642700
  -0.0000970600    0.0000239600    0.0000720800
  -0.0000936800    0.0000240600    0.0000664900
  -0.0000948900    0.0000242800    0.0000722500
  -0.0000945300    0.0000244000    0.0000664500
  -0.0000951100    0.0000240500    0.0000678900
  -0.0000952600    0.0000235200    0.0000664900
  -0.0000957500    0.0000237700    0.0000693000
  -0.0000946400    0.0000233600    0.0000666700
   0.0001768000    0.0001513700   -0.0000921100
   0.0001008400    0.0000189100   -0.0000635000
   0.0000977100    0.0000272400   -0.0000674300
   0.0000958800    0.0000218800   -0.0000667500
   0.0000953800    0.0000275200   -0.0000708900
   0.0000956000    0.0000248300   -0.0000676100
   0.0000627300   -0.0000605000   -0.0000642400
   0.0000990100    0.0000223400   -0.0000649300
   0.0000657300   -0.0000437600   -0.0000966300
   0.0000986800    0.0000193400   -0.0000589000
   0.0000946000    0.0000222200   -0.0000703000
   0.0000933800    0.0000212700   -0.0000627800
   0.0000931500    0.0000211200   -0.0000657500
   0.0000995000    0.0000257300   -0.0000663000
   0.0000801200    0.0000377100   -0.0000773900
   0.0001031900    0.0000260800   -0.0000630600
   0.0000955300    0.0000240800   -0.0000651600
   0.0000962700    0.0000244800   -0.0000632700
   0.0000954600    0.0000239800   -0.0000657100
   0.0000953600    0.0000240800   -0.0000643300
   0.0000950800    0.0000239900   -0.0000653000
   0.0000958600    0.0000240500   -0.0000647900
   0.0000951300    0.0000241300   -0.0000643700
   0.0000963000    0.0000242000   -0.0000638500
  -0.0022153300    0.0062788000    0.0035829100
   0.0000830600    0.0001681500    0.0000698200
   0.0000165800    0.0001476300    0.0000799900
   0.0000738300    0.0001733800    0.0000760700
   0.0000707000    0.0001709900    0.0000794100
   0.0000721100    0.0001727200    0.0000795900
   0.0000452600    0.0001954400    0.0001027200
   0.0000731400    0.0001715000    0.0000728200
   0.0000670500    0.0001708800    0.0000749900
   0.0000686500    0.0001671200    0.0000841200
   0.0000676500    0.0001694800    0.0000766500
   0.0000680100    0.0001711900    0.0000822300
   0.0000716900    0.0001701900    0.0000799800
   0.0000713600    0.0001699000    0.0000807000
   0.0000714600    0.0001705200    0.0000797600
   0.0000705600    0.0001684800    0.0000817600
   0.0000693200    0.0001691500    0.0000833700
   0.0000742300    0.0001685400    0.0000809400
   0.0000724900    0.0001706600    0.0000809300
   0.0000718800    0.0001699000    0.0000809900
   0.0000712100    0.0001707300    0.0000801700
   0.0000712000    0.0001704200    0.0000802700
   0.0000658400    0.0001694100    0.0000763200
   0.0000727700    0.0001696700    0.0000802800
  -0.0000855500    0.0001698300   -0.0001022700
  -0.0001317200    0.0001524600   -0.0000240400
  -0.0000763000    0.0001691200   -0.0000823200
  -0.0000669800    0.0001712500   -0.0000809700
  -0.0000772300    0.0001686500   -0.0000854400
  -0.0000670600    0.0001674400   -0.0000801000
  -0.0000541700    0.0001840300   -0.0001161500
  -0.0000704200    0.0001865800   -0.0000662400
  -0.0001006800    0.0001918600   -0.0000879500
  -0.0000627300    0.0001685700   -0.0000852800
  -0.0000790300    0.0001714000   -0.0000791700
  -0.0000690000    0.0001695500   -0.0000805400
  -0.0000743800    0.0001730400   -0.0000813000
  -0.0000691000    0.0001706400   -0.0000791800
  -0.0000816300    0.0001770300   -0.0000818400
  -0.0000625100    0.0001687900   -0.0000774700
  -0.0000738500    0.0001716800   -0.0000792100
  -0.0000696500    0.0001718300   -0.0000792000
  -0.0000731600    0.0001713700   -0.0000796600
  -0.0000703900    0.0001714100   -0.0000797500
  -0.0000729700    0.0001717800   -0.0000800200
  -0.0000707700    0.0001715400   -0.0000790300
  -0.0000738600    0.0001721400   -0.0000795700