phonopy:
  version: "2.47.1"
  frequency_unit_conversion_factor: 15.633302
  symmetry_tolerance: 1.00000e-05

space_group:
  type: "P2_1/c"
  number: 14
  Hall_symbol: "-P 2ybc"

supercell_matrix:
- [   2,   0,   0 ]
- [   0,   4,   0 ]
- [   0,   0,   3 ]

primitive_cell:
  lattice:
  - [    11.762558857402132,     0.000000000000000,     0.040723353018348 ] # a
  - [     0.000000000000000,     5.862391939565812,     0.000000000000000 ] # b
  - [    -2.157199740980605,     0.000000000000000,     7.514249291144488 ] # c
  points:
  - symbol: S # 1
    coordinates: [  0.420261462164731,  0.208583731771785,  0.862300798122688 ]
    mass: 32.065000
  - symbol: S # 2
    coordinates: [  0.579738537835280,  0.708583731771775,  0.637699201877312 ]
    mass: 32.065000
  - symbol: S # 3
    coordinates: [  0.579738537835280,  0.791416268228225,  0.137699201877314 ]
    mass: 32.065000
  - symbol: S # 4
    coordinates: [  0.420261462164731,  0.291416268228215,  0.362300798122689 ]
    mass: 32.065000
  - symbol: C # 5
    coordinates: [  0.525278666546104,  0.403654373411969,  0.973246453315209 ]
    mass: 12.010700
  - symbol: C # 6
    coordinates: [  0.474721333453904,  0.903654373411969,  0.526753546684798 ]
    mass: 12.010700
  - symbol: C # 7
    coordinates: [  0.474721333453904,  0.596345626588031,  0.026753546684797 ]
    mass: 12.010700
  - symbol: C # 8
    coordinates: [  0.525278666546104,  0.096345626588033,  0.473246453315212 ]
    mass: 12.010700
  - symbol: C # 9
    coordinates: [  0.306407374694560,  0.383082094456943,  0.889582705176739 ]
    mass: 12.010700
  - symbol: C # 10
    coordinates: [  0.693592625305419,  0.883082094456946,  0.610417294823260 ]
    mass: 12.010700
  - symbol: C # 11
    coordinates: [  0.693592625305419,  0.616917905543054,  0.110417294823256 ]
    mass: 12.010700
  - symbol: C # 12
    coordinates: [  0.306407374694560,  0.116917905543056,  0.389582705176744 ]
    mass: 12.010700
  - symbol: C # 13
    coordinates: [  0.348374698168425,  0.590134921349856,  0.981667604479975 ]
    mass: 12.010700
  - symbol: C # 14
    coordinates: [  0.651625301831575,  0.090134921349866,  0.518332395520025 ]
    mass: 12.010700
  - symbol: C # 15
    coordinates: [  0.651625301831575,  0.409865078650132,  0.018332395520033 ]
    mass: 12.010700
  - symbol: C # 16
    coordinates: [  0.348374698168425,  0.909865078650144,  0.481667604479968 ]
    mass: 12.010700
  - symbol: C # 17
    coordinates: [  0.266120631169364,  0.745398344591740,  0.015792008773474 ]
    mass: 12.010700
  - symbol: C # 18
    coordinates: [  0.733879368830637,  0.245398344591751,  0.484207991226528 ]
    mass: 12.010700
  - symbol: C # 19
    coordinates: [  0.733879368830637,  0.254601655408252,  0.984207991226524 ]
    mass: 12.010700
  - symbol: C # 20
    coordinates: [  0.266120631169364,  0.754601655408260,  0.515792008773476 ]
    mass: 12.010700
  - symbol: C # 21
    coordinates: [  0.146252373492806,  0.694150368003370,  0.959564478497205 ]
    mass: 12.010700
  - symbol: C # 22
    coordinates: [  0.853747626507195,  0.194150368003372,  0.540435521502795 ]
    mass: 12.010700
  - symbol: C # 23
    coordinates: [  0.853747626507195,  0.305849631996632,  0.040435521502786 ]
    mass: 12.010700
  - symbol: C # 24
    coordinates: [  0.146252373492806,  0.805849631996630,  0.459564478497219 ]
    mass: 12.010700
  - symbol: C # 25
    coordinates: [  0.106214556156150,  0.490269448290203,  0.867673335721176 ]
    mass: 12.010700
  - symbol: C # 26
    coordinates: [  0.893785443843837,  0.990269448290202,  0.632326664278824 ]
    mass: 12.010700
  - symbol: C # 27
    coordinates: [  0.893785443843837,  0.509730551709798,  0.132326664278824 ]
    mass: 12.010700
  - symbol: C # 28
    coordinates: [  0.106214556156150,  0.009730551709797,  0.367673335721176 ]
    mass: 12.010700
  - symbol: C # 29
    coordinates: [  0.185667807786224,  0.333591471298115,  0.831532121042258 ]
    mass: 12.010700
  - symbol: C # 30
    coordinates: [  0.814332192213773,  0.833591471298108,  0.668467878957741 ]
    mass: 12.010700
  - symbol: C # 31
    coordinates: [  0.814332192213773,  0.666408528701892,  0.168467878957735 ]
    mass: 12.010700
  - symbol: C # 32
    coordinates: [  0.185667807786224,  0.166408528701885,  0.331532121042267 ]
    mass: 12.010700
  - symbol: H # 33
    coordinates: [  0.296425730327276,  0.903614499659398,  0.086599866895881 ]
    mass: 1.007940
  - symbol: H # 34
    coordinates: [  0.703574269672727,  0.403614499659395,  0.413400133104119 ]
    mass: 1.007940
  - symbol: H # 35
    coordinates: [  0.703574269672727,  0.096385500340601,  0.913400133104126 ]
    mass: 1.007940
  - symbol: H # 36
    coordinates: [  0.296425730327276,  0.596385500340602,  0.586599866895874 ]
    mass: 1.007940
  - symbol: H # 37
    coordinates: [  0.082734963293510,  0.813407705576377,  0.988238269744974 ]
    mass: 1.007940
  - symbol: H # 38
    coordinates: [  0.917265036706500,  0.313407705576380,  0.511761730255026 ]
    mass: 1.007940
  - symbol: H # 39
    coordinates: [  0.917265036706500,  0.186592294423625,  0.011761730255028 ]
    mass: 1.007940
  - symbol: H # 40
    coordinates: [  0.082734963293510,  0.686592294423623,  0.488238269744967 ]
    mass: 1.007940
  - symbol: H # 41
    coordinates: [  0.011963216559351,  0.452513621863325,  0.825122684022008 ]
    mass: 1.007940
  - symbol: H # 42
    coordinates: [  0.988036783440646,  0.952513621863338,  0.674877315977992 ]
    mass: 1.007940
  - symbol: H # 43
    coordinates: [  0.988036783440646,  0.547486378136662,  0.174877315977996 ]
    mass: 1.007940
  - symbol: H # 44
    coordinates: [  0.011963216559351,  0.047486378136674,  0.325122684021999 ]
    mass: 1.007940
  - symbol: H # 45
    coordinates: [  0.155257151021897,  0.175623959087517,  0.760154840390928 ]
    mass: 1.007940
  - symbol: H # 46
    coordinates: [  0.844742848978112,  0.675623959087510,  0.739845159609072 ]
    mass: 1.007940
  - symbol: H # 47
    coordinates: [  0.844742848978112,  0.824376040912490,  0.239845159609062 ]
    mass: 1.007940
  - symbol: H # 48
    coordinates: [  0.155257151021897,  0.324376040912480,  0.260154840390942 ]
    mass: 1.007940
  reciprocal_lattice: # without 2pi
  - [     0.084931101328582,     0.000000000000000,     0.024382122909221 ] # a*
  - [     0.000000000000000,     0.170578837155344,     0.000000000000000 ] # b*
  - [    -0.000460282735857,     0.000000000000000,     0.132948354452221 ] # c*

unit_cell:
  lattice:
  - [    11.762558857402132,     0.000000000000000,     0.040723353018348 ] # a
  - [     0.000000000000000,     5.862391939565812,     0.000000000000000 ] # b
  - [    -2.157199740980605,     0.000000000000000,     7.514249291144488 ] # c
  points:
  - symbol: S # 1
    coordinates: [  0.420261462164731,  0.208583731771785,  0.862300798122688 ]
    mass: 32.065000
    reduced_to: 1
  - symbol: S # 2
    coordinates: [  0.579738537835280,  0.708583731771775,  0.637699201877312 ]
    mass: 32.065000
    reduced_to: 2
  - symbol: S # 3
    coordinates: [  0.579738537835280,  0.791416268228225,  0.137699201877314 ]
    mass: 32.065000
    reduced_to: 3
  - symbol: S # 4
    coordinates: [  0.420261462164731,  0.291416268228215,  0.362300798122689 ]
    mass: 32.065000
    reduced_to: 4
  - symbol: C # 5
    coordinates: [  0.525278666546104,  0.403654373411969,  0.973246453315209 ]
    mass: 12.010700
    reduced_to: 5
  - symbol: C # 6
    coordinates: [  0.474721333453904,  0.903654373411969,  0.526753546684798 ]
    mass: 12.010700
    reduced_to: 6
  - symbol: C # 7
    coordinates: [  0.474721333453904,  0.596345626588031,  0.026753546684797 ]
    mass: 12.010700
    reduced_to: 7
  - symbol: C # 8
    coordinates: [  0.525278666546104,  0.096345626588033,  0.473246453315212 ]
    mass: 12.010700
    reduced_to: 8
  - symbol: C # 9
    coordinates: [  0.306407374694560,  0.383082094456943,  0.889582705176740 ]
    mass: 12.010700
    reduced_to: 9
  - symbol: C # 10
    coordinates: [  0.693592625305419,  0.883082094456946,  0.610417294823260 ]
    mass: 12.010700
    reduced_to: 10
  - symbol: C # 11
    coordinates: [  0.693592625305419,  0.616917905543054,  0.110417294823256 ]
    mass: 12.010700
    reduced_to: 11
  - symbol: C # 12
    coordinates: [  0.306407374694560,  0.116917905543056,  0.389582705176744 ]
    mass: 12.010700
    reduced_to: 12
  - symbol: C # 13
    coordinates: [  0.348374698168425,  0.590134921349856,  0.981667604479975 ]
    mass: 12.010700
    reduced_to: 13
  - symbol: C # 14
    coordinates: [  0.651625301831575,  0.090134921349866,  0.518332395520025 ]
    mass: 12.010700
    reduced_to: 14
  - symbol: C # 15
    coordinates: [  0.651625301831575,  0.409865078650132,  0.018332395520033 ]
    mass: 12.010700
    reduced_to: 15
  - symbol: C # 16
    coordinates: [  0.348374698168425,  0.909865078650144,  0.481667604479968 ]
    mass: 12.010700
    reduced_to: 16
  - symbol: C # 17
    coordinates: [  0.266120631169364,  0.745398344591740,  0.015792008773474 ]
    mass: 12.010700
    reduced_to: 17
  - symbol: C # 18
    coordinates: [  0.733879368830637,  0.245398344591751,  0.484207991226528 ]
    mass: 12.010700
    reduced_to: 18
  - symbol: C # 19
    coordinates: [  0.733879368830637,  0.254601655408252,  0.984207991226524 ]
    mass: 12.010700
    reduced_to: 19
  - symbol: C # 20
    coordinates: [  0.266120631169364,  0.754601655408260,  0.515792008773476 ]
    mass: 12.010700
    reduced_to: 20
  - symbol: C # 21
    coordinates: [  0.146252373492806,  0.694150368003370,  0.959564478497205 ]
    mass: 12.010700
    reduced_to: 21
  - symbol: C # 22
    coordinates: [  0.853747626507195,  0.194150368003372,  0.540435521502795 ]
    mass: 12.010700
    reduced_to: 22
  - symbol: C # 23
    coordinates: [  0.853747626507195,  0.305849631996632,  0.040435521502786 ]
    mass: 12.010700
    reduced_to: 23
  - symbol: C # 24
    coordinates: [  0.146252373492806,  0.805849631996630,  0.459564478497219 ]
    mass: 12.010700
    reduced_to: 24
  - symbol: C # 25
    coordinates: [  0.106214556156150,  0.490269448290203,  0.867673335721176 ]
    mass: 12.010700
    reduced_to: 25
  - symbol: C # 26
    coordinates: [  0.893785443843837,  0.990269448290202,  0.632326664278824 ]
    mass: 12.010700
    reduced_to: 26
  - symbol: C # 27
    coordinates: [  0.893785443843837,  0.509730551709798,  0.132326664278824 ]
    mass: 12.010700
    reduced_to: 27
  - symbol: C # 28
    coordinates: [  0.106214556156150,  0.009730551709797,  0.367673335721176 ]
    mass: 12.010700
    reduced_to: 28
  - symbol: C # 29
    coordinates: [  0.185667807786224,  0.333591471298115,  0.831532121042258 ]
    mass: 12.010700
    reduced_to: 29
  - symbol: C # 30
    coordinates: [  0.814332192213773,  0.833591471298108,  0.668467878957742 ]
    mass: 12.010700
    reduced_to: 30
  - symbol: C # 31
    coordinates: [  0.814332192213773,  0.666408528701892,  0.168467878957735 ]
    mass: 12.010700
    reduced_to: 31
  - symbol: C # 32
    coordinates: [  0.185667807786224,  0.166408528701885,  0.331532121042267 ]
    mass: 12.010700
    reduced_to: 32
  - symbol: H # 33
    coordinates: [  0.296425730327276,  0.903614499659398,  0.086599866895881 ]
    mass: 1.007940
    reduced_to: 33
  - symbol: H # 34
    coordinates: [  0.703574269672727,  0.403614499659395,  0.413400133104119 ]
    mass: 1.007940
    reduced_to: 34
  - symbol: H # 35
    coordinates: [  0.703574269672727,  0.096385500340601,  0.913400133104126 ]
    mass: 1.007940
    reduced_to: 35
  - symbol: H # 36
    coordinates: [  0.296425730327276,  0.596385500340602,  0.586599866895874 ]
    mass: 1.007940
    reduced_to: 36
  - symbol: H # 37
    coordinates: [  0.082734963293510,  0.813407705576377,  0.988238269744974 ]
    mass: 1.007940
    reduced_to: 37
  - symbol: H # 38
    coordinates: [  0.917265036706500,  0.313407705576380,  0.511761730255026 ]
    mass: 1.007940
    reduced_to: 38
  - symbol: H # 39
    coordinates: [  0.917265036706500,  0.186592294423625,  0.011761730255028 ]
    mass: 1.007940
    reduced_to: 39
  - symbol: H # 40
    coordinates: [  0.082734963293510,  0.686592294423623,  0.488238269744967 ]
    mass: 1.007940
    reduced_to: 40
  - symbol: H # 41
    coordinates: [  0.011963216559351,  0.452513621863325,  0.825122684022008 ]
    mass: 1.007940
    reduced_to: 41
  - symbol: H # 42
    coordinates: [  0.988036783440646,  0.952513621863338,  0.674877315977992 ]
    mass: 1.007940
    reduced_to: 42
  - symbol: H # 43
    coordinates: [  0.988036783440646,  0.547486378136662,  0.174877315977996 ]
    mass: 1.007940
    reduced_to: 43
  - symbol: H # 44
    coordinates: [  0.011963216559351,  0.047486378136674,  0.325122684021999 ]
    mass: 1.007940
    reduced_to: 44
  - symbol: H # 45
    coordinates: [  0.155257151021897,  0.175623959087517,  0.760154840390928 ]
    mass: 1.007940
    reduced_to: 45
  - symbol: H # 46
    coordinates: [  0.844742848978112,  0.675623959087510,  0.739845159609072 ]
    mass: 1.007940
    reduced_to: 46
  - symbol: H # 47
    coordinates: [  0.844742848978112,  0.824376040912490,  0.239845159609062 ]
    mass: 1.007940
    reduced_to: 47
  - symbol: H # 48
    coordinates: [  0.155257151021897,  0.324376040912480,  0.260154840390942 ]
    mass: 1.007940
    reduced_to: 48

supercell:
  lattice:
  - [    23.525117714804264,     0.000000000000000,     0.081446706036696 ] # a
  - [     0.000000000000000,    23.449567758263246,     0.000000000000000 ] # b
  - [    -6.471599222941816,     0.000000000000000,    22.542747873433466 ] # c
  points:
  - symbol: S # 1
    coordinates: [  0.210130731082366,  0.052145932942946,  0.287433599374229 ]
    mass: 32.065000
    reduced_to: 1
  - symbol: S # 2
    coordinates: [  0.710130731082366,  0.052145932942946,  0.287433599374229 ]
    mass: 32.065000
    reduced_to: 1
  - symbol: S # 3
    coordinates: [  0.210130731082366,  0.302145932942946,  0.287433599374229 ]
    mass: 32.065000
    reduced_to: 1
  - symbol: S # 4
    coordinates: [  0.710130731082366,  0.302145932942946,  0.287433599374229 ]
    mass: 32.065000
    reduced_to: 1
  - symbol: S # 5
    coordinates: [  0.210130731082366,  0.552145932942946,  0.287433599374229 ]
    mass: 32.065000
    reduced_to: 1
  - symbol: S # 6
    coordinates: [  0.710130731082366,  0.552145932942946,  0.287433599374229 ]
    mass: 32.065000
    reduced_to: 1
  - symbol: S # 7
    coordinates: [  0.210130731082366,  0.802145932942946,  0.287433599374229 ]
    mass: 32.065000
    reduced_to: 1
  - symbol: S # 8
    coordinates: [  0.710130731082366,  0.802145932942946,  0.287433599374229 ]
    mass: 32.065000
    reduced_to: 1
  - symbol: S # 9
    coordinates: [  0.210130731082366,  0.052145932942946,  0.620766932707563 ]
    mass: 32.065000
    reduced_to: 1
  - symbol: S # 10
    coordinates: [  0.710130731082366,  0.052145932942946,  0.620766932707563 ]
    mass: 32.065000
    reduced_to: 1
  - symbol: S # 11
    coordinates: [  0.210130731082366,  0.302145932942946,  0.620766932707563 ]
    mass: 32.065000
    reduced_to: 1
  - symbol: S # 12
    coordinates: [  0.710130731082366,  0.302145932942946,  0.620766932707563 ]
    mass: 32.065000
    reduced_to: 1
  - symbol: S # 13
    coordinates: [  0.210130731082366,  0.552145932942946,  0.620766932707563 ]
    mass: 32.065000
    reduced_to: 1
  - symbol: S # 14
    coordinates: [  0.710130731082366,  0.552145932942946,  0.620766932707563 ]
    mass: 32.065000
    reduced_to: 1
  - symbol: S # 15
    coordinates: [  0.210130731082366,  0.802145932942946,  0.620766932707563 ]
    mass: 32.065000
    reduced_to: 1
  - symbol: S # 16
    coordinates: [  0.710130731082366,  0.802145932942946,  0.620766932707563 ]
    mass: 32.065000
    reduced_to: 1
  - symbol: S # 17
    coordinates: [  0.210130731082366,  0.052145932942946,  0.954100266040896 ]
    mass: 32.065000
    reduced_to: 1
  - symbol: S # 18
    coordinates: [  0.710130731082366,  0.052145932942946,  0.954100266040896 ]
    mass: 32.065000
    reduced_to: 1
  - symbol: S # 19
    coordinates: [  0.210130731082366,  0.302145932942946,  0.954100266040896 ]
    mass: 32.065000
    reduced_to: 1
  - symbol: S # 20
    coordinates: [  0.710130731082366,  0.302145932942946,  0.954100266040896 ]
    mass: 32.065000
    reduced_to: 1
  - symbol: S # 21
    coordinates: [  0.210130731082366,  0.552145932942946,  0.954100266040896 ]
    mass: 32.065000
    reduced_to: 1
  - symbol: S # 22
    coordinates: [  0.710130731082366,  0.552145932942946,  0.954100266040896 ]
    mass: 32.065000
    reduced_to: 1
  - symbol: S # 23
    coordinates: [  0.210130731082366,  0.802145932942946,  0.954100266040896 ]
    mass: 32.065000
    reduced_to: 1
  - symbol: S # 24
    coordinates: [  0.710130731082366,  0.802145932942946,  0.954100266040896 ]
    mass: 32.065000
    reduced_to: 1
  - symbol: S # 25
    coordinates: [  0.289869268917640,  0.177145932942944,  0.212566400625771 ]
    mass: 32.065000
    reduced_to: 25
  - symbol: S # 26
    coordinates: [  0.789869268917640,  0.177145932942944,  0.212566400625771 ]
    mass: 32.065000
    reduced_to: 25
  - symbol: S # 27
    coordinates: [  0.289869268917640,  0.427145932942944,  0.212566400625771 ]
    mass: 32.065000
    reduced_to: 25
  - symbol: S # 28
    coordinates: [  0.789869268917640,  0.427145932942944,  0.212566400625771 ]
    mass: 32.065000
    reduced_to: 25
  - symbol: S # 29
    coordinates: [  0.289869268917640,  0.677145932942944,  0.212566400625771 ]
    mass: 32.065000
    reduced_to: 25
  - symbol: S # 30
    coordinates: [  0.789869268917640,  0.677145932942944,  0.212566400625771 ]
    mass: 32.065000
    reduced_to: 25
  - symbol: S # 31
    coordinates: [  0.289869268917640,  0.927145932942944,  0.212566400625771 ]
    mass: 32.065000
    reduced_to: 25
  - symbol: S # 32
    coordinates: [  0.789869268917640,  0.927145932942944,  0.212566400625771 ]
    mass: 32.065000
    reduced_to: 25
  - symbol: S # 33
    coordinates: [  0.289869268917640,  0.177145932942944,  0.545899733959104 ]
    mass: 32.065000
    reduced_to: 25
  - symbol: S # 34
    coordinates: [  0.789869268917640,  0.177145932942944,  0.545899733959104 ]
    mass: 32.065000
    reduced_to: 25
  - symbol: S # 35
    coordinates: [  0.289869268917640,  0.427145932942944,  0.545899733959104 ]
    mass: 32.065000
    reduced_to: 25
  - symbol: S # 36
    coordinates: [  0.789869268917640,  0.427145932942944,  0.545899733959104 ]
    mass: 32.065000
    reduced_to: 25
  - symbol: S # 37
    coordinates: [  0.289869268917640,  0.677145932942944,  0.545899733959104 ]
    mass: 32.065000
    reduced_to: 25
  - symbol: S # 38
    coordinates: [  0.789869268917640,  0.677145932942944,  0.545899733959104 ]
    mass: 32.065000
    reduced_to: 25
  - symbol: S # 39
    coordinates: [  0.289869268917640,  0.927145932942944,  0.545899733959104 ]
    mass: 32.065000
    reduced_to: 25
  - symbol: S # 40
    coordinates: [  0.789869268917640,  0.927145932942944,  0.545899733959104 ]
    mass: 32.065000
    reduced_to: 25
  - symbol: S # 41
    coordinates: [  0.289869268917640,  0.177145932942944,  0.879233067292437 ]
    mass: 32.065000
    reduced_to: 25
  - symbol: S # 42
    coordinates: [  0.789869268917640,  0.177145932942944,  0.879233067292437 ]
    mass: 32.065000
    reduced_to: 25
  - symbol: S # 43
    coordinates: [  0.289869268917640,  0.427145932942944,  0.879233067292437 ]
    mass: 32.065000
    reduced_to: 25
  - symbol: S # 44
    coordinates: [  0.789869268917640,  0.427145932942944,  0.879233067292437 ]
    mass: 32.065000
    reduced_to: 25
  - symbol: S # 45
    coordinates: [  0.289869268917640,  0.677145932942944,  0.879233067292437 ]
    mass: 32.065000
    reduced_to: 25
  - symbol: S # 46
    coordinates: [  0.789869268917640,  0.677145932942944,  0.879233067292437 ]
    mass: 32.065000
    reduced_to: 25
  - symbol: S # 47
    coordinates: [  0.289869268917640,  0.927145932942944,  0.879233067292437 ]
    mass: 32.065000
    reduced_to: 25
  - symbol: S # 48
    coordinates: [  0.789869268917640,  0.927145932942944,  0.879233067292437 ]
    mass: 32.065000
    reduced_to: 25
  - symbol: S # 49
    coordinates: [  0.289869268917640,  0.197854067057056,  0.045899733959105 ]
    mass: 32.065000
    reduced_to: 49
  - symbol: S # 50
    coordinates: [  0.789869268917640,  0.197854067057056,  0.045899733959105 ]
    mass: 32.065000
    reduced_to: 49
  - symbol: S # 51
    coordinates: [  0.289869268917640,  0.447854067057056,  0.045899733959105 ]
    mass: 32.065000
    reduced_to: 49
  - symbol: S # 52
    coordinates: [  0.789869268917640,  0.447854067057056,  0.045899733959105 ]
    mass: 32.065000
    reduced_to: 49
  - symbol: S # 53
    coordinates: [  0.289869268917640,  0.697854067057056,  0.045899733959105 ]
    mass: 32.065000
    reduced_to: 49
  - symbol: S # 54
    coordinates: [  0.789869268917640,  0.697854067057056,  0.045899733959105 ]
    mass: 32.065000
    reduced_to: 49
  - symbol: S # 55
    coordinates: [  0.289869268917640,  0.947854067057056,  0.045899733959105 ]
    mass: 32.065000
    reduced_to: 49
  - symbol: S # 56
    coordinates: [  0.789869268917640,  0.947854067057056,  0.045899733959105 ]
    mass: 32.065000
    reduced_to: 49
  - symbol: S # 57
    coordinates: [  0.289869268917640,  0.197854067057056,  0.379233067292438 ]
    mass: 32.065000
    reduced_to: 49
  - symbol: S # 58
    coordinates: [  0.789869268917640,  0.197854067057056,  0.379233067292438 ]
    mass: 32.065000
    reduced_to: 49
  - symbol: S # 59
    coordinates: [  0.289869268917640,  0.447854067057056,  0.379233067292438 ]
    mass: 32.065000
    reduced_to: 49
  - symbol: S # 60
    coordinates: [  0.789869268917640,  0.447854067057056,  0.379233067292438 ]
    mass: 32.065000
    reduced_to: 49
  - symbol: S # 61
    coordinates: [  0.289869268917640,  0.697854067057056,  0.379233067292438 ]
    mass: 32.065000
    reduced_to: 49
  - symbol: S # 62
    coordinates: [  0.789869268917640,  0.697854067057056,  0.379233067292438 ]
    mass: 32.065000
    reduced_to: 49
  - symbol: S # 63
    coordinates: [  0.289869268917640,  0.947854067057056,  0.379233067292438 ]
    mass: 32.065000
    reduced_to: 49
  - symbol: S # 64
    coordinates: [  0.789869268917640,  0.947854067057056,  0.379233067292438 ]
    mass: 32.065000
    reduced_to: 49
  - symbol: S # 65
    coordinates: [  0.289869268917640,  0.197854067057056,  0.712566400625771 ]
    mass: 32.065000
    reduced_to: 49
  - symbol: S # 66
    coordinates: [  0.789869268917640,  0.197854067057056,  0.712566400625771 ]
    mass: 32.065000
    reduced_to: 49
  - symbol: S # 67
    coordinates: [  0.289869268917640,  0.447854067057056,  0.712566400625771 ]
    mass: 32.065000
    reduced_to: 49
  - symbol: S # 68
    coordinates: [  0.789869268917640,  0.447854067057056,  0.712566400625771 ]
    mass: 32.065000
    reduced_to: 49
  - symbol: S # 69
    coordinates: [  0.289869268917640,  0.697854067057056,  0.712566400625771 ]
    mass: 32.065000
    reduced_to: 49
  - symbol: S # 70
    coordinates: [  0.789869268917640,  0.697854067057056,  0.712566400625771 ]
    mass: 32.065000
    reduced_to: 49
  - symbol: S # 71
    coordinates: [  0.289869268917640,  0.947854067057056,  0.712566400625771 ]
    mass: 32.065000
    reduced_to: 49
  - symbol: S # 72
    coordinates: [  0.789869268917640,  0.947854067057056,  0.712566400625771 ]
    mass: 32.065000
    reduced_to: 49
  - symbol: S # 73
    coordinates: [  0.210130731082366,  0.072854067057054,  0.120766932707563 ]
    mass: 32.065000
    reduced_to: 73
  - symbol: S # 74
    coordinates: [  0.710130731082366,  0.072854067057054,  0.120766932707563 ]
    mass: 32.065000
    reduced_to: 73
  - symbol: S # 75
    coordinates: [  0.210130731082366,  0.322854067057054,  0.120766932707563 ]
    mass: 32.065000
    reduced_to: 73
  - symbol: S # 76
    coordinates: [  0.710130731082366,  0.322854067057054,  0.120766932707563 ]
    mass: 32.065000
    reduced_to: 73
  - symbol: S # 77
    coordinates: [  0.210130731082366,  0.572854067057054,  0.120766932707563 ]
    mass: 32.065000
    reduced_to: 73
  - symbol: S # 78
    coordinates: [  0.710130731082366,  0.572854067057054,  0.120766932707563 ]
    mass: 32.065000
    reduced_to: 73
  - symbol: S # 79
    coordinates: [  0.210130731082366,  0.822854067057054,  0.120766932707563 ]
    mass: 32.065000
    reduced_to: 73
  - symbol: S # 80
    coordinates: [  0.710130731082366,  0.822854067057054,  0.120766932707563 ]
    mass: 32.065000
    reduced_to: 73
  - symbol: S # 81
    coordinates: [  0.210130731082366,  0.072854067057054,  0.454100266040896 ]
    mass: 32.065000
    reduced_to: 73
  - symbol: S # 82
    coordinates: [  0.710130731082366,  0.072854067057054,  0.454100266040896 ]
    mass: 32.065000
    reduced_to: 73
  - symbol: S # 83
    coordinates: [  0.210130731082366,  0.322854067057054,  0.454100266040896 ]
    mass: 32.065000
    reduced_to: 73
  - symbol: S # 84
    coordinates: [  0.710130731082366,  0.322854067057054,  0.454100266040896 ]
    mass: 32.065000
    reduced_to: 73
  - symbol: S # 85
    coordinates: [  0.210130731082366,  0.572854067057054,  0.454100266040896 ]
    mass: 32.065000
    reduced_to: 73
  - symbol: S # 86
    coordinates: [  0.710130731082366,  0.572854067057054,  0.454100266040896 ]
    mass: 32.065000
    reduced_to: 73
  - symbol: S # 87
    coordinates: [  0.210130731082366,  0.822854067057054,  0.454100266040896 ]
    mass: 32.065000
    reduced_to: 73
  - symbol: S # 88
    coordinates: [  0.710130731082366,  0.822854067057054,  0.454100266040896 ]
    mass: 32.065000
    reduced_to: 73
  - symbol: S # 89
    coordinates: [  0.210130731082366,  0.072854067057054,  0.787433599374230 ]
    mass: 32.065000
    reduced_to: 73
  - symbol: S # 90
    coordinates: [  0.710130731082366,  0.072854067057054,  0.787433599374230 ]
    mass: 32.065000
    reduced_to: 73
  - symbol: S # 91
    coordinates: [  0.210130731082366,  0.322854067057054,  0.787433599374230 ]
    mass: 32.065000
    reduced_to: 73
  - symbol: S # 92
    coordinates: [  0.710130731082366,  0.322854067057054,  0.787433599374230 ]
    mass: 32.065000
    reduced_to: 73
  - symbol: S # 93
    coordinates: [  0.210130731082366,  0.572854067057054,  0.787433599374230 ]
    mass: 32.065000
    reduced_to: 73
  - symbol: S # 94
    coordinates: [  0.710130731082366,  0.572854067057054,  0.787433599374230 ]
    mass: 32.065000
    reduced_to: 73
  - symbol: S # 95
    coordinates: [  0.210130731082366,  0.822854067057054,  0.787433599374230 ]
    mass: 32.065000
    reduced_to: 73
  - symbol: S # 96
    coordinates: [  0.710130731082366,  0.822854067057054,  0.787433599374230 ]
    mass: 32.065000
    reduced_to: 73
  - symbol: C # 97
    coordinates: [  0.262639333273052,  0.100913593352992,  0.324415484438403 ]
    mass: 12.010700
    reduced_to: 97
  - symbol: C # 98
    coordinates: [  0.762639333273052,  0.100913593352992,  0.324415484438403 ]
    mass: 12.010700
    reduced_to: 97
  - symbol: C # 99
    coordinates: [  0.262639333273052,  0.350913593352992,  0.324415484438403 ]
    mass: 12.010700
    reduced_to: 97
  - symbol: C # 100
    coordinates: [  0.762639333273052,  0.350913593352992,  0.324415484438403 ]
    mass: 12.010700
    reduced_to: 97
  - symbol: C # 101
    coordinates: [  0.262639333273052,  0.600913593352992,  0.324415484438403 ]
    mass: 12.010700
    reduced_to: 97
  - symbol: C # 102
    coordinates: [  0.762639333273052,  0.600913593352992,  0.324415484438403 ]
    mass: 12.010700
    reduced_to: 97
  - symbol: C # 103
    coordinates: [  0.262639333273052,  0.850913593352992,  0.324415484438403 ]
    mass: 12.010700
    reduced_to: 97
  - symbol: C # 104
    coordinates: [  0.762639333273052,  0.850913593352992,  0.324415484438403 ]
    mass: 12.010700
    reduced_to: 97
  - symbol: C # 105
    coordinates: [  0.262639333273052,  0.100913593352992,  0.657748817771736 ]
    mass: 12.010700
    reduced_to: 97
  - symbol: C # 106
    coordinates: [  0.762639333273052,  0.100913593352992,  0.657748817771736 ]
    mass: 12.010700
    reduced_to: 97
  - symbol: C # 107
    coordinates: [  0.262639333273052,  0.350913593352992,  0.657748817771736 ]
    mass: 12.010700
    reduced_to: 97
  - symbol: C # 108
    coordinates: [  0.762639333273052,  0.350913593352992,  0.657748817771736 ]
    mass: 12.010700
    reduced_to: 97
  - symbol: C # 109
    coordinates: [  0.262639333273052,  0.600913593352992,  0.657748817771736 ]
    mass: 12.010700
    reduced_to: 97
  - symbol: C # 110
    coordinates: [  0.762639333273052,  0.600913593352992,  0.657748817771736 ]
    mass: 12.010700
    reduced_to: 97
  - symbol: C # 111
    coordinates: [  0.262639333273052,  0.850913593352992,  0.657748817771736 ]
    mass: 12.010700
    reduced_to: 97
  - symbol: C # 112
    coordinates: [  0.762639333273052,  0.850913593352992,  0.657748817771736 ]
    mass: 12.010700
    reduced_to: 97
  - symbol: C # 113
    coordinates: [  0.262639333273052,  0.100913593352992,  0.991082151105070 ]
    mass: 12.010700
    reduced_to: 97
  - symbol: C # 114
    coordinates: [  0.762639333273052,  0.100913593352992,  0.991082151105070 ]
    mass: 12.010700
    reduced_to: 97
  - symbol: C # 115
    coordinates: [  0.262639333273052,  0.350913593352992,  0.991082151105070 ]
    mass: 12.010700
    reduced_to: 97
  - symbol: C # 116
    coordinates: [  0.762639333273052,  0.350913593352992,  0.991082151105070 ]
    mass: 12.010700
    reduced_to: 97
  - symbol: C # 117
    coordinates: [  0.262639333273052,  0.600913593352992,  0.991082151105070 ]
    mass: 12.010700
    reduced_to: 97
  - symbol: C # 118
    coordinates: [  0.762639333273052,  0.600913593352992,  0.991082151105070 ]
    mass: 12.010700
    reduced_to: 97
  - symbol: C # 119