phonopy:
  version: "2.47.1"
  frequency_unit_conversion_factor: 15.633302
  symmetry_tolerance: 1.00000e-05

space_group:
  type: "P-1"
  number: 2
  Hall_symbol: "-P 1"

supercell_matrix:
- [   4,   0,   0 ]
- [   0,   3,   0 ]
- [   0,   0,   2 ]

primitive_cell:
  lattice:
  - [     6.237353929076419,     0.020577476033446,    -0.067398934436405 ] # a
  - [     0.756074551898207,     7.546910108116636,    -0.011340950460035 ] # b
  - [     0.388969754416941,     3.178966934489099,    13.869007491555612 ] # c
  points:
  - symbol: C # 1
    coordinates: [  0.203951062148866,  0.398479012576772,  0.017627737354977 ]
    mass: 12.010700
  - symbol: C # 2
    coordinates: [  0.796048937851130,  0.601520987423220,  0.982372262645021 ]
    mass: 12.010700
  - symbol: C # 3
    coordinates: [  0.657229886761394,  0.099558386868974,  0.943365310444930 ]
    mass: 12.010700
  - symbol: C # 4
    coordinates: [  0.342770113238597,  0.900441613131023,  0.056634689555073 ]
    mass: 12.010700
  - symbol: C # 5
    coordinates: [  0.327197427561468,  0.555313435850640,  0.858433781631971 ]
    mass: 12.010700
  - symbol: C # 6
    coordinates: [  0.672802572438529,  0.444686564149360,  0.141566218368031 ]
    mass: 12.010700
  - symbol: C # 7
    coordinates: [  0.166839508312354,  0.526032264947340,  0.929970379296660 ]
    mass: 12.010700
  - symbol: C # 8
    coordinates: [  0.833160491687637,  0.473967735052668,  0.070029620703332 ]
    mass: 12.010700
  - symbol: C # 9
    coordinates: [  0.684404157450330,  0.041694253750158,  0.043650245346610 ]
    mass: 12.010700
  - symbol: C # 10
    coordinates: [  0.315595842549672,  0.958305746249853,  0.956349754653386 ]
    mass: 12.010700
  - symbol: C # 11
    coordinates: [  0.043731179483344,  0.369367245813152,  0.088333556192534 ]
    mass: 12.010700
  - symbol: C # 12
    coordinates: [  0.956268820516656,  0.630632754186842,  0.911666443807455 ]
    mass: 12.010700
  - symbol: C # 13
    coordinates: [  0.559854361691934,  0.884506059692061,  0.202633232006380 ]
    mass: 12.010700
  - symbol: C # 14
    coordinates: [  0.440145638308072,  0.115493940307934,  0.797366767993611 ]
    mass: 12.010700
  - symbol: C # 15
    coordinates: [  0.780498892136071,  0.256409295113069,  0.785154910148163 ]
    mass: 12.010700
  - symbol: C # 16
    coordinates: [  0.219501107863936,  0.743590704886922,  0.214845089851838 ]
    mass: 12.010700
  - symbol: C # 17
    coordinates: [  0.921350549158084,  0.215031849918344,  0.247166475733634 ]
    mass: 12.010700
  - symbol: C # 18
    coordinates: [  0.078649450841913,  0.784968150081650,  0.752833524266358 ]
    mass: 12.010700
  - symbol: C # 19
    coordinates: [  0.409396912922669,  0.786266540969510,  0.259773103731520 ]
    mass: 12.010700
  - symbol: C # 20
    coordinates: [  0.590603087077335,  0.213733459030486,  0.740226896268476 ]
    mass: 12.010700
  - symbol: C # 21
    coordinates: [  0.288631468056334,  0.680685733141684,  0.771101093448817 ]
    mass: 12.010700
  - symbol: C # 22
    coordinates: [  0.711368531943672,  0.319314266858309,  0.228898906551181 ]
    mass: 12.010700
  - symbol: C # 23
    coordinates: [  0.533220077475654,  0.943240531458012,  0.101714529809908 ]
    mass: 12.010700
  - symbol: C # 24
    coordinates: [  0.466779922524347,  0.056759468541989,  0.898285470190089 ]
    mass: 12.010700
  - symbol: C # 25
    coordinates: [  0.080449616199574,  0.241847066402760,  0.176878138746895 ]
    mass: 12.010700
  - symbol: C # 26
    coordinates: [  0.919550383800423,  0.758152933597240,  0.823121861253106 ]
    mass: 12.010700
  - symbol: C # 27
    coordinates: [  0.808730989560553,  0.198820927305222,  0.884654249619893 ]
    mass: 12.010700
  - symbol: C # 28
    coordinates: [  0.191269010439449,  0.801179072694790,  0.115345750380099 ]
    mass: 12.010700
  - symbol: C # 29
    coordinates: [  0.932220243209492,  0.358459872016049,  0.725427647014380 ]
    mass: 12.010700
  - symbol: C # 30
    coordinates: [  0.067779756790506,  0.641540127983947,  0.274572352985626 ]
    mass: 12.010700
  - symbol: C # 31
    coordinates: [  0.957845178417533,  0.087863425475327,  0.337548977130270 ]
    mass: 12.010700
  - symbol: C # 32
    coordinates: [  0.042154821582470,  0.912136574524668,  0.662451022869743 ]
    mass: 12.010700
  - symbol: C # 33
    coordinates: [  0.449527269953456,  0.709036208086392,  0.697932847911485 ]
    mass: 12.010700
  - symbol: C # 34
    coordinates: [  0.550472730046542,  0.290963791913603,  0.302067152088517 ]
    mass: 12.010700
  - symbol: C # 35
    coordinates: [  0.900617913243420,  0.414176316550317,  0.627730538713429 ]
    mass: 12.010700
  - symbol: C # 36
    coordinates: [  0.099382086756582,  0.585823683449678,  0.372269461286570 ]
    mass: 12.010700
  - symbol: C # 37
    coordinates: [  0.798600609398972,  0.065245315541080,  0.405603530577143 ]
    mass: 12.010700
  - symbol: C # 38
    coordinates: [  0.201399390601032,  0.934754684458919,  0.594396469422853 ]
    mass: 12.010700
  - symbol: C # 39
    coordinates: [  0.284462681762400,  0.629289352353605,  0.416620990436841 ]
    mass: 12.010700
  - symbol: C # 40
    coordinates: [  0.715537318237599,  0.370710647646390,  0.583379009563168 ]
    mass: 12.010700
  - symbol: C # 41
    coordinates: [  0.435048668794229,  0.725614719867101,  0.361979173685389 ]
    mass: 12.010700
  - symbol: C # 42
    coordinates: [  0.564951331205774,  0.274385280132906,  0.638020826314610 ]
    mass: 12.010700
  - symbol: C # 43
    coordinates: [  0.407129317749335,  0.831834073843816,  0.612285770326368 ]
    mass: 12.010700
  - symbol: C # 44
    coordinates: [  0.592870682250663,  0.168165926156188,  0.387714229673632 ]
    mass: 12.010700
  - symbol: H # 45
    coordinates: [  0.361346555347303,  0.320014000469682,  0.031178354732519 ]
    mass: 1.007940
  - symbol: H # 46
    coordinates: [  0.638653444652707,  0.679985999530326,  0.968821645267475 ]
    mass: 1.007940
  - symbol: H # 47
    coordinates: [  0.484599845482387,  0.476830266068841,  0.871918559479553 ]
    mass: 1.007940
  - symbol: H # 48
    coordinates: [  0.515400154517619,  0.523169733931157,  0.128081440520444 ]
    mass: 1.007940
  - symbol: H # 49
    coordinates: [  0.826643460873937,  0.073980738833493,  0.077381066296489 ]
    mass: 1.007940
  - symbol: H # 50
    coordinates: [  0.173356539126074,  0.926019261166507,  0.922618933703512 ]
    mass: 1.007940
  - symbol: H # 51
    coordinates: [  0.701769003352953,  0.917024018930288,  0.236497325526877 ]
    mass: 1.007940
  - symbol: H # 52
    coordinates: [  0.298230996647047,  0.082975981069714,  0.763502674473122 ]
    mass: 1.007940
  - symbol: H # 53
    coordinates: [  0.237862001075266,  0.163430490215227,  0.190572461860136 ]
    mass: 1.007940
  - symbol: H # 54
    coordinates: [  0.762137998924741,  0.836569509784774,  0.809427538139872 ]
    mass: 1.007940
  - symbol: H # 55
    coordinates: [  0.951068461657465,  0.231118207859305,  0.918317739759103 ]
    mass: 1.007940
  - symbol: H # 56
    coordinates: [  0.048931538342525,  0.768881792140693,  0.081682260240904 ]
    mass: 1.007940
  - symbol: H # 57
    coordinates: [  0.073594868747915,  0.391556264898544,  0.759323545752813 ]
    mass: 1.007940
  - symbol: H # 58
    coordinates: [  0.926405131252083,  0.608443735101472,  0.240676454247191 ]
    mass: 1.007940
  - symbol: H # 59
    coordinates: [  0.114776660288198,  0.008563902063251,  0.350991342208081 ]
    mass: 1.007940
  - symbol: H # 60
    coordinates: [  0.885223339711787,  0.991436097936747,  0.649008657791921 ]
    mass: 1.007940
  - symbol: H # 61
    coordinates: [  0.606558634219496,  0.630325800830492,  0.711532181432940 ]
    mass: 1.007940
  - symbol: H # 62
    coordinates: [  0.393441365780504,  0.369674199169513,  0.288467818567075 ]
    mass: 1.007940
  - symbol: H # 63
    coordinates: [  0.016816552374268,  0.493984962600430,  0.583795270837731 ]
    mass: 1.007940
  - symbol: H # 64
    coordinates: [  0.983183447625724,  0.506015037399569,  0.416204729162263 ]
    mass: 1.007940
  - symbol: H # 65
    coordinates: [  0.829404523110822,  0.967766125209056,  0.474118308295892 ]
    mass: 1.007940
  - symbol: H # 66
    coordinates: [  0.170595476889184,  0.032233874790944,  0.525881691704110 ]
    mass: 1.007940
  - symbol: H # 67
    coordinates: [  0.307409774087006,  0.584844739571335,  0.494425739318053 ]
    mass: 1.007940
  - symbol: H # 68
    coordinates: [  0.692590225912989,  0.415155260428666,  0.505574260681928 ]
    mass: 1.007940
  - symbol: H # 69
    coordinates: [  0.577966807748402,  0.757931438317340,  0.395236666790380 ]
    mass: 1.007940
  - symbol: H # 70
    coordinates: [  0.422033192251608,  0.242068561682664,  0.604763333209626 ]
    mass: 1.007940
  - symbol: H # 71
    coordinates: [  0.531070912594154,  0.850944389754556,  0.557041054843523 ]
    mass: 1.007940
  - symbol: H # 72
    coordinates: [  0.468929087405848,  0.149055610245445,  0.442958945156477 ]
    mass: 1.007940
  reciprocal_lattice: # without 2pi
  - [     0.160368599034684,    -0.016067483987184,    -0.000814804828240 ] # a*
  - [    -0.000765278472747,     0.132535608631757,    -0.030357518197282 ] # b*
  - [     0.000778714245653,     0.000030294054721,     0.072074429300111 ] # c*

unit_cell:
  lattice:
  - [     6.237353929076419,     0.020577476033446,    -0.067398934436405 ] # a
  - [     0.756074551898207,     7.546910108116637,    -0.011340950460035 ] # b
  - [     0.388969754416941,     3.178966934489099,    13.869007491555612 ] # c
  points:
  - symbol: C # 1
    coordinates: [  0.203951062148866,  0.398479012576772,  0.017627737354977 ]
    mass: 12.010700
    reduced_to: 1
  - symbol: C # 2
    coordinates: [  0.796048937851130,  0.601520987423220,  0.982372262645021 ]
    mass: 12.010700
    reduced_to: 2
  - symbol: C # 3
    coordinates: [  0.657229886761394,  0.099558386868974,  0.943365310444930 ]
    mass: 12.010700
    reduced_to: 3
  - symbol: C # 4
    coordinates: [  0.342770113238597,  0.900441613131023,  0.056634689555073 ]
    mass: 12.010700
    reduced_to: 4
  - symbol: C # 5
    coordinates: [  0.327197427561468,  0.555313435850640,  0.858433781631971 ]
    mass: 12.010700
    reduced_to: 5
  - symbol: C # 6
    coordinates: [  0.672802572438529,  0.444686564149360,  0.141566218368031 ]
    mass: 12.010700
    reduced_to: 6
  - symbol: C # 7
    coordinates: [  0.166839508312354,  0.526032264947340,  0.929970379296660 ]
    mass: 12.010700
    reduced_to: 7
  - symbol: C # 8
    coordinates: [  0.833160491687637,  0.473967735052668,  0.070029620703332 ]
    mass: 12.010700
    reduced_to: 8
  - symbol: C # 9
    coordinates: [  0.684404157450330,  0.041694253750158,  0.043650245346610 ]
    mass: 12.010700
    reduced_to: 9
  - symbol: C # 10
    coordinates: [  0.315595842549672,  0.958305746249853,  0.956349754653386 ]
    mass: 12.010700
    reduced_to: 10
  - symbol: C # 11
    coordinates: [  0.043731179483344,  0.369367245813152,  0.088333556192534 ]
    mass: 12.010700
    reduced_to: 11
  - symbol: C # 12
    coordinates: [  0.956268820516656,  0.630632754186842,  0.911666443807455 ]
    mass: 12.010700
    reduced_to: 12
  - symbol: C # 13
    coordinates: [  0.559854361691934,  0.884506059692061,  0.202633232006380 ]
    mass: 12.010700
    reduced_to: 13
  - symbol: C # 14
    coordinates: [  0.440145638308072,  0.115493940307934,  0.797366767993611 ]
    mass: 12.010700
    reduced_to: 14
  - symbol: C # 15
    coordinates: [  0.780498892136071,  0.256409295113069,  0.785154910148163 ]
    mass: 12.010700
    reduced_to: 15
  - symbol: C # 16
    coordinates: [  0.219501107863936,  0.743590704886922,  0.214845089851838 ]
    mass: 12.010700
    reduced_to: 16
  - symbol: C # 17
    coordinates: [  0.921350549158084,  0.215031849918344,  0.247166475733634 ]
    mass: 12.010700
    reduced_to: 17
  - symbol: C # 18
    coordinates: [  0.078649450841913,  0.784968150081650,  0.752833524266358 ]
    mass: 12.010700
    reduced_to: 18
  - symbol: C # 19
    coordinates: [  0.409396912922669,  0.786266540969510,  0.259773103731520 ]
    mass: 12.010700
    reduced_to: 19
  - symbol: C # 20
    coordinates: [  0.590603087077335,  0.213733459030486,  0.740226896268476 ]
    mass: 12.010700
    reduced_to: 20
  - symbol: C # 21
    coordinates: [  0.288631468056334,  0.680685733141684,  0.771101093448817 ]
    mass: 12.010700
    reduced_to: 21
  - symbol: C # 22
    coordinates: [  0.711368531943672,  0.319314266858309,  0.228898906551181 ]
    mass: 12.010700
    reduced_to: 22
  - symbol: C # 23
    coordinates: [  0.533220077475654,  0.943240531458012,  0.101714529809908 ]
    mass: 12.010700
    reduced_to: 23
  - symbol: C # 24
    coordinates: [  0.466779922524347,  0.056759468541989,  0.898285470190089 ]
    mass: 12.010700
    reduced_to: 24
  - symbol: C # 25
    coordinates: [  0.080449616199574,  0.241847066402760,  0.176878138746895 ]
    mass: 12.010700
    reduced_to: 25
  - symbol: C # 26
    coordinates: [  0.919550383800423,  0.758152933597240,  0.823121861253106 ]
    mass: 12.010700
    reduced_to: 26
  - symbol: C # 27
    coordinates: [  0.808730989560553,  0.198820927305222,  0.884654249619893 ]
    mass: 12.010700
    reduced_to: 27
  - symbol: C # 28
    coordinates: [  0.191269010439449,  0.801179072694790,  0.115345750380099 ]
    mass: 12.010700
    reduced_to: 28
  - symbol: C # 29
    coordinates: [  0.932220243209492,  0.358459872016049,  0.725427647014380 ]
    mass: 12.010700
    reduced_to: 29
  - symbol: C # 30
    coordinates: [  0.067779756790506,  0.641540127983947,  0.274572352985626 ]
    mass: 12.010700
    reduced_to: 30
  - symbol: C # 31
    coordinates: [  0.957845178417533,  0.087863425475327,  0.337548977130270 ]
    mass: 12.010700
    reduced_to: 31
  - symbol: C # 32
    coordinates: [  0.042154821582470,  0.912136574524668,  0.662451022869743 ]
    mass: 12.010700
    reduced_to: 32
  - symbol: C # 33
    coordinates: [  0.449527269953456,  0.709036208086392,  0.697932847911485 ]
    mass: 12.010700
    reduced_to: 33
  - symbol: C # 34
    coordinates: [  0.550472730046542,  0.290963791913603,  0.302067152088517 ]
    mass: 12.010700
    reduced_to: 34
  - symbol: C # 35
    coordinates: [  0.900617913243420,  0.414176316550317,  0.627730538713429 ]
    mass: 12.010700
    reduced_to: 35
  - symbol: C # 36
    coordinates: [  0.099382086756582,  0.585823683449678,  0.372269461286570 ]
    mass: 12.010700
    reduced_to: 36
  - symbol: C # 37
    coordinates: [  0.798600609398972,  0.065245315541080,  0.405603530577143 ]
    mass: 12.010700
    reduced_to: 37
  - symbol: C # 38
    coordinates: [  0.201399390601032,  0.934754684458919,  0.594396469422853 ]
    mass: 12.010700
    reduced_to: 38
  - symbol: C # 39
    coordinates: [  0.284462681762400,  0.629289352353605,  0.416620990436841 ]
    mass: 12.010700
    reduced_to: 39
  - symbol: C # 40
    coordinates: [  0.715537318237599,  0.370710647646390,  0.583379009563168 ]
    mass: 12.010700
    reduced_to: 40
  - symbol: C # 41
    coordinates: [  0.435048668794229,  0.725614719867101,  0.361979173685389 ]
    mass: 12.010700
    reduced_to: 41
  - symbol: C # 42
    coordinates: [  0.564951331205774,  0.274385280132906,  0.638020826314610 ]
    mass: 12.010700
    reduced_to: 42
  - symbol: C # 43
    coordinates: [  0.407129317749335,  0.831834073843816,  0.612285770326368 ]
    mass: 12.010700
    reduced_to: 43
  - symbol: C # 44
    coordinates: [  0.592870682250663,  0.168165926156188,  0.387714229673632 ]
    mass: 12.010700
    reduced_to: 44
  - symbol: H # 45
    coordinates: [  0.361346555347303,  0.320014000469682,  0.031178354732519 ]
    mass: 1.007940
    reduced_to: 45
  - symbol: H # 46
    coordinates: [  0.638653444652707,  0.679985999530326,  0.968821645267475 ]
    mass: 1.007940
    reduced_to: 46
  - symbol: H # 47
    coordinates: [  0.484599845482387,  0.476830266068841,  0.871918559479553 ]
    mass: 1.007940
    reduced_to: 47
  - symbol: H # 48
    coordinates: [  0.515400154517619,  0.523169733931157,  0.128081440520444 ]
    mass: 1.007940
    reduced_to: 48
  - symbol: H # 49
    coordinates: [  0.826643460873937,  0.073980738833493,  0.077381066296489 ]
    mass: 1.007940
    reduced_to: 49
  - symbol: H # 50
    coordinates: [  0.173356539126074,  0.926019261166507,  0.922618933703512 ]
    mass: 1.007940
    reduced_to: 50
  - symbol: H # 51
    coordinates: [  0.701769003352953,  0.917024018930288,  0.236497325526877 ]
    mass: 1.007940
    reduced_to: 51
  - symbol: H # 52
    coordinates: [  0.298230996647047,  0.082975981069714,  0.763502674473122 ]
    mass: 1.007940
    reduced_to: 52
  - symbol: H # 53
    coordinates: [  0.237862001075266,  0.163430490215227,  0.190572461860136 ]
    mass: 1.007940
    reduced_to: 53
  - symbol: H # 54
    coordinates: [  0.762137998924741,  0.836569509784774,  0.809427538139872 ]
    mass: 1.007940
    reduced_to: 54
  - symbol: H # 55
    coordinates: [  0.951068461657465,  0.231118207859305,  0.918317739759103 ]
    mass: 1.007940
    reduced_to: 55
  - symbol: H # 56
    coordinates: [  0.048931538342525,  0.768881792140693,  0.081682260240904 ]
    mass: 1.007940
    reduced_to: 56
  - symbol: H # 57
    coordinates: [  0.073594868747915,  0.391556264898544,  0.759323545752813 ]
    mass: 1.007940
    reduced_to: 57
  - symbol: H # 58
    coordinates: [  0.926405131252083,  0.608443735101472,  0.240676454247191 ]
    mass: 1.007940
    reduced_to: 58
  - symbol: H # 59
    coordinates: [  0.114776660288198,  0.008563902063251,  0.350991342208081 ]
    mass: 1.007940
    reduced_to: 59
  - symbol: H # 60
    coordinates: [  0.885223339711787,  0.991436097936747,  0.649008657791921 ]
    mass: 1.007940
    reduced_to: 60
  - symbol: H # 61
    coordinates: [  0.606558634219496,  0.630325800830492,  0.711532181432940 ]
    mass: 1.007940
    reduced_to: 61
  - symbol: H # 62
    coordinates: [  0.393441365780504,  0.369674199169513,  0.288467818567075 ]
    mass: 1.007940
    reduced_to: 62
  - symbol: H # 63
    coordinates: [  0.016816552374268,  0.493984962600430,  0.583795270837731 ]
    mass: 1.007940
    reduced_to: 63
  - symbol: H # 64
    coordinates: [  0.983183447625724,  0.506015037399569,  0.416204729162263 ]
    mass: 1.007940
    reduced_to: 64
  - symbol: H # 65
    coordinates: [  0.829404523110822,  0.967766125209056,  0.474118308295892 ]
    mass: 1.007940
    reduced_to: 65
  - symbol: H # 66
    coordinates: [  0.170595476889184,  0.032233874790944,  0.525881691704110 ]
    mass: 1.007940
    reduced_to: 66
  - symbol: H # 67
    coordinates: [  0.307409774087006,  0.584844739571335,  0.494425739318053 ]
    mass: 1.007940
    reduced_to: 67
  - symbol: H # 68
    coordinates: [  0.692590225912989,  0.415155260428666,  0.505574260681928 ]
    mass: 1.007940
    reduced_to: 68
  - symbol: H # 69
    coordinates: [  0.577966807748402,  0.757931438317340,  0.395236666790380 ]
    mass: 1.007940
    reduced_to: 69
  - symbol: H # 70
    coordinates: [  0.422033192251608,  0.242068561682664,  0.604763333209626 ]
    mass: 1.007940
    reduced_to: 70
  - symbol: H # 71
    coordinates: [  0.531070912594154,  0.850944389754556,  0.557041054843523 ]
    mass: 1.007940
    reduced_to: 71
  - symbol: H # 72
    coordinates: [  0.468929087405848,  0.149055610245445,  0.442958945156477 ]
    mass: 1.007940
    reduced_to: 72

supercell:
  lattice:
  - [    24.949415716305676,     0.082309904133782,    -0.269595737745622 ] # a
  - [     2.268223655694622,    22.640730324349910,    -0.034022851380107 ] # b
  - [     0.777939508833883,     6.357933868978198,    27.738014983111224 ] # c
  points:
  - symbol: C # 1
    coordinates: [  0.050987765537216,  0.132826337525591,  0.008813868677489 ]
    mass: 12.010700
    reduced_to: 1
  - symbol: C # 2
    coordinates: [  0.300987765537216,  0.132826337525591,  0.008813868677489 ]
    mass: 12.010700
    reduced_to: 1
  - symbol: C # 3
    coordinates: [  0.550987765537217,  0.132826337525591,  0.008813868677489 ]
    mass: 12.010700
    reduced_to: 1
  - symbol: C # 4
    coordinates: [  0.800987765537217,  0.132826337525591,  0.008813868677489 ]
    mass: 12.010700
    reduced_to: 1
  - symbol: C # 5
    coordinates: [  0.050987765537216,  0.466159670858924,  0.008813868677489 ]
    mass: 12.010700
    reduced_to: 1
  - symbol: C # 6
    coordinates: [  0.300987765537216,  0.466159670858924,  0.008813868677489 ]
    mass: 12.010700
    reduced_to: 1
  - symbol: C # 7
    coordinates: [  0.550987765537217,  0.466159670858924,  0.008813868677489 ]
    mass: 12.010700
    reduced_to: 1
  - symbol: C # 8
    coordinates: [  0.800987765537217,  0.466159670858924,  0.008813868677489 ]
    mass: 12.010700
    reduced_to: 1
  - symbol: C # 9
    coordinates: [  0.050987765537216,  0.799493004192257,  0.008813868677489 ]
    mass: 12.010700
    reduced_to: 1
  - symbol: C # 10
    coordinates: [  0.300987765537216,  0.799493004192257,  0.008813868677489 ]
    mass: 12.010700
    reduced_to: 1
  - symbol: C # 11
    coordinates: [  0.550987765537217,  0.799493004192257,  0.008813868677489 ]
    mass: 12.010700
    reduced_to: 1
  - symbol: C # 12
    coordinates: [  0.800987765537217,  0.799493004192257,  0.008813868677489 ]
    mass: 12.010700
    reduced_to: 1
  - symbol: C # 13
    coordinates: [  0.050987765537216,  0.132826337525591,  0.508813868677489 ]
    mass: 12.010700
    reduced_to: 1
  - symbol: C # 14
    coordinates: [  0.300987765537216,  0.132826337525591,  0.508813868677489 ]
    mass: 12.010700
    reduced_to: 1
  - symbol: C # 15
    coordinates: [  0.550987765537217,  0.132826337525591,  0.508813868677489 ]
    mass: 12.010700
    reduced_to: 1
  - symbol: C # 16
    coordinates: [  0.800987765537217,  0.132826337525591,  0.508813868677489 ]
    mass: 12.010700
    reduced_to: 1
  - symbol: C # 17
    coordinates: [  0.050987765537216,  0.466159670858924,  0.508813868677489 ]
    mass: 12.010700
    reduced_to: 1
  - symbol: C # 18
    coordinates: [  0.300987765537216,  0.466159670858924,  0.508813868677489 ]
    mass: 12.010700
    reduced_to: 1
  - symbol: C # 19
    coordinates: [  0.550987765537217,  0.466159670858924,  0.508813868677489 ]
    mass: 12.010700
    reduced_to: 1
  - symbol: C # 20
    coordinates: [  0.800987765537217,  0.466159670858924,  0.508813868677489 ]
    mass: 12.010700
    reduced_to: 1
  - symbol: C # 21
    coordinates: [  0.050987765537216,  0.799493004192257,  0.508813868677489 ]
    mass: 12.010700
    reduced_to: 1
  - symbol: C # 22
    coordinates: [  0.300987765537216,  0.799493004192257,  0.508813868677489 ]
    mass: 12.010700
    reduced_to: 1
  - symbol: C # 23
    coordinates: [  0.550987765537217,  0.799493004192257,  0.508813868677489 ]
    mass: 12.010700
    reduced_to: 1
  - symbol: C # 24
    coordinates: [  0.800987765537217,  0.799493004192257,  0.508813868677489 ]
    mass: 12.010700
    reduced_to: 1
  - symbol: C # 25
    coordinates: [  0.199012234462783,  0.200506995807740,  0.491186131322510 ]
    mass: 12.010700
    reduced_to: 25
  - symbol: C # 26
    coordinates: [  0.449012234462783,  0.200506995807740,  0.491186131322510 ]
    mass: 12.010700
    reduced_to: 25
  - symbol: C # 27
    coordinates: [  0.699012234462783,  0.200506995807740,  0.491186131322510 ]
    mass: 12.010700
    reduced_to: 25
  - symbol: C # 28
    coordinates: [  0.949012234462783,  0.200506995807740,  0.491186131322510 ]
    mass: 12.010700
    reduced_to: 25
  - symbol: C # 29
    coordinates: [  0.199012234462783,  0.533840329141073,  0.491186131322510 ]
    mass: 12.010700
    reduced_to: 25
  - symbol: C # 30
    coordinates: [  0.449012234462783,  0.533840329141073,  0.491186131322510 ]
    mass: 12.010700
    reduced_to: 25
  - symbol: C # 31
    coordinates: [  0.699012234462783,  0.533840329141073,  0.491186131322510 ]
    mass: 12.010700
    reduced_to: 25
  - symbol: C # 32
    coordinates: [  0.949012234462783,  0.533840329141073,  0.491186131322510 ]
    mass: 12.010700
    reduced_to: 25
  - symbol: C # 33
    coordinates: [  0.199012234462783,  0.867173662474407,  0.491186131322510 ]
    mass: 12.010700
    reduced_to: 25
  - symbol: C # 34
    coordinates: [  0.449012234462783,  0.867173662474407,  0.491186131322510 ]
    mass: 12.010700
    reduced_to: 25
  - symbol: C # 35
    coordinates: [  0.699012234462783,  0.867173662474407,  0.491186131322510 ]
    mass: 12.010700
    reduced_to: 25
  - symbol: C # 36
    coordinates: [  0.949012234462783,  0.867173662474407,  0.491186131322510 ]
    mass: 12.010700
    reduced_to: 25
  - symbol: C # 37
    coordinates: [  0.199012234462783,  0.200506995807740,  0.991186131322510 ]
    mass: 12.010700
    reduced_to: 25
  - symbol: C # 38
    coordinates: [  0.449012234462783,  0.200506995807740,  0.991186131322510 ]
    mass: 12.010700
    reduced_to: 25
  - symbol: C # 39
    coordinates: [  0.699012234462783,  0.200506995807740,  0.991186131322510 ]
    mass: 12.010700
    reduced_to: 25
  - symbol: C # 40
    coordinates: [  0.949012234462783,  0.200506995807740,  0.991186131322510 ]
    mass: 12.010700
    reduced_to: 25
  - symbol: C # 41
    coordinates: [  0.199012234462783,  0.533840329141073,  0.991186131322510 ]
    mass: 12.010700
    reduced_to: 25
  - symbol: C # 42
    coordinates: [  0.449012234462783,  0.533840329141073,  0.991186131322510 ]
    mass: 12.010700
    reduced_to: 25
  - symbol: C # 43
    coordinates: [  0.699012234462783,  0.533840329141073,  0.991186131322510 ]
    mass: 12.010700
    reduced_to: 25
  - symbol: C # 44
    coordinates: [  0.949012234462783,  0.533840329141073,  0.991186131322510 ]
    mass: 12.010700
    reduced_to: 25
  - symbol: C # 45
    coordinates: [  0.199012234462783,  0.867173662474407,  0.991186131322510 ]
    mass: 12.010700
    reduced_to: 25
  - symbol: C # 46
    coordinates: [  0.449012234462783,  0.867173662474407,  0.991186131322510 ]
    mass: 12.010700
    reduced_to: 25
  - symbol: C # 47
    coordinates: [  0.699012234462783,  0.867173662474407,  0.991186131322510 ]
    mass: 12.010700
    reduced_to: 25
  - symbol: C # 48
    coordinates: [  0.949012234462783,  0.867173662474407,  0.991186131322510 ]
    mass: 12.010700
    reduced_to: 25
  - symbol: C # 49
    coordinates: [  0.164307471690349,  0.033186128956325,  0.471682655222465 ]
    mass: 12.010700
    reduced_to: 49
  - symbol: C # 50
    coordinates: [  0.414307471690349,  0.033186128956325,  0.471682655222465 ]
    mass: 12.010700
    reduced_to: 49
  - symbol: C # 51
    coordinates: [  0.664307471690349,  0.033186128956325,  0.471682655222465 ]
    mass: 12.010700
    reduced_to: 49
  - symbol: C # 52
    coordinates: [  0.914307471690349,  0.033186128956325,  0.471682655222465 ]
    mass: 12.010700
    reduced_to: 49
  - symbol: C # 53
    coordinates: [  0.164307471690349,  0.366519462289658,  0.471682655222465 ]
    mass: 12.010700
    reduced_to: 49
  - symbol: C # 54
    coordinates: [  0.414307471690349,  0.366519462289658,  0.471682655222465 ]
    mass: 12.010700
    reduced_to: 49
  - symbol: C # 55
    coordinates: [  0.664307471690349,  0.366519462289658,  0.471682655222465 ]
    mass: 12.010700
    reduced_to: 49
  - symbol: C # 56
    coordinates: [  0.914307471690349,  0.366519462289658,  0.471682655222465 ]
    mass: 12.010700
    reduced_to: 49
  - symbol: C # 57
    coordinates: [  0.164307471690349,  0.699852795622991,  0.471682655222465 ]
    mass: 12.010700
    reduced_to: 49
  - symbol: C # 58
    coordinates: [  0.414307471690349,  0.699852795622991,  0.471682655222465 ]
    mass: 12.010700
    reduced_to: 49
  - symbol: C # 59
    coordinates: [  0.664307471690349,  0.699852795622991,  0.471682655222465 ]
    mass: 12.010700
    reduced_to: 49
  - symbol: C # 60
    coordinates: [  0.914307471690349,  0.699852795622991,  0.471682655222465 ]
    mass: 12.010700
    reduced_to: 49
  - symbol: C # 61
    coordinates: [  0.164307471690349,  0.033186128956325,  0.971682655222465 ]
    mass: 12.010700
    reduced_to: 49
  - symbol: C # 62
    coordinates: [  0.414307471690349,  0.033186128956325,  0.971682655222465 ]
    mass: 12.010700
    reduced_to: 49
  - symbol: C # 63
    coordinates: [  0.664307471690349,  0.033186128956325,  0.971682655222465 ]
    mass: 12.010700
    reduced_to: 49
  - symbol: C # 64
    coordinates: [  0.914307471690349,  0.033186128956325,  0.971682655222465 ]
    mass: 12.010700
    reduced_to: 49
  - symbol: C # 65
    coordinates: [  0.164307471690349,  0.366519462289658,  0.971682655222465 ]
    mass: 12.010700
    reduced_to: 49
  - symbol: C # 66
    coordinates: [  0.414307471690349,  0.366519462289658,  0.971682655222465 ]
    mass: 12.010700
    reduced_to: 49
  - symbol: C # 67
    coordinates: [  0.664307471690349,  0.366519462289658,  0.971682655222465 ]
    mass: 12.010700
    reduced_to: 49
  - symbol: C # 68
    coordinates: [  0.914307471690349,  0.366519462289658,  0.971682655222465 ]
    mass: 12.010700
    reduced_to: 49
  - symbol: C # 69
    coordinates: [  0.164307471690349,  0.699852795622991,  0.971682655222465 ]
    mass: 12.010700
    reduced_to: 49
  - symbol: C # 70
    coordinates: [  0.414307471690349,  0.699852795622991,  0.971682655222465 ]
    mass: 12.010700
    reduced_to: 49
  - symbol: C # 71
    coordinates: [  0.664307471690349,  0.699852795622991,  0.971682655222465 ]
    mass: 12.010700
    reduced_to: 49
  - symbol: C # 72
    coordinates: [  0.914307471690349,  0.699852795622991,  0.971682655222465 ]
    mass: 12.010700
    reduced_to: 49
  - symbol: C # 73
    coordinates: [  0.085692528309649,  0.300147204377008,  0.028317344777537 ]
    mass: 12.010700
    reduced_to: 73
  - symbol: C # 74
    coordinates: [  0.335692528309649,  0.300147204377008,  0.028317344777537 ]
    mass: 12.010700
    reduced_to: 73
  - symbol: C # 75