 Entering Gaussian System, Link 0=g16
 Initial command:
 /global/homes/r/rkang35/g16/l1.exe "/pscratch/sd/r/rkang35/GaussianScratch/Gau-862864.inp" -scrdir="/pscratch/sd/r/rkang35/GaussianScratch/"
 Entering Link 1 = /global/homes/r/rkang35/g16/l1.exe PID=    862865.
  
 Copyright (c) 1988,1990,1992,1993,1995,1998,2003,2009,2016,
            Gaussian, Inc.  All Rights Reserved.
  
 This is part of the Gaussian(R) 16 program.  It is based on
 the Gaussian(R) 09 system (copyright 2009, Gaussian, Inc.),
 the Gaussian(R) 03 system (copyright 2003, Gaussian, Inc.),
 the Gaussian(R) 98 system (copyright 1998, Gaussian, Inc.),
 the Gaussian(R) 94 system (copyright 1995, Gaussian, Inc.),
 the Gaussian 92(TM) system (copyright 1992, Gaussian, Inc.),
 the Gaussian 90(TM) system (copyright 1990, Gaussian, Inc.),
 the Gaussian 88(TM) system (copyright 1988, Gaussian, Inc.),
 the Gaussian 86(TM) system (copyright 1986, Carnegie Mellon
 University), and the Gaussian 82(TM) system (copyright 1983,
 Carnegie Mellon University). Gaussian is a federally registered
 trademark of Gaussian, Inc.
  
 This software contains proprietary and confidential information,
 including trade secrets, belonging to Gaussian, Inc.
  
 This software is provided under written license and may be
 used, copied, transmitted, or stored only in accord with that
 written license.
  
 The following legend is applicable only to US Government
 contracts under FAR:
  
                    RESTRICTED RIGHTS LEGEND
  
 Use, reproduction and disclosure by the US Government is
 subject to restrictions as set forth in subparagraphs (a)
 and (c) of the Commercial Computer Software - Restricted
 Rights clause in FAR 52.227-19.
  
 Gaussian, Inc.
 340 Quinnipiac St., Bldg. 40, Wallingford CT 06492
  
  
 ---------------------------------------------------------------
 Warning -- This program may not be used in any manner that
 competes with the business of Gaussian, Inc. or will provide
 assistance to any competitor of Gaussian, Inc.  The licensee
 of this program is prohibited from giving any competitor of
 Gaussian, Inc. access to this program.  By using this program,
 the user acknowledges that Gaussian, Inc. is engaged in the
 business of creating and licensing software in the field of
 computational chemistry and represents and warrants to the
 licensee that it is not a competitor of Gaussian, Inc. and that
 it will not use this program in any manner prohibited above.
 ---------------------------------------------------------------
  

 Cite this work as:
 Gaussian 16, Revision A.03,
 M. J. Frisch, G. W. Trucks, H. B. Schlegel, G. E. Scuseria, 
 M. A. Robb, J. R. Cheeseman, G. Scalmani, V. Barone, 
 G. A. Petersson, H. Nakatsuji, X. Li, M. Caricato, A. V. Marenich, 
 J. Bloino, B. G. Janesko, R. Gomperts, B. Mennucci, H. P. Hratchian, 
 J. V. Ortiz, A. F. Izmaylov, J. L. Sonnenberg, D. Williams-Young, 
 F. Ding, F. Lipparini, F. Egidi, J. Goings, B. Peng, A. Petrone, 
 T. Henderson, D. Ranasinghe, V. G. Zakrzewski, J. Gao, N. Rega, 
 G. Zheng, W. Liang, M. Hada, M. Ehara, K. Toyota, R. Fukuda, 
 J. Hasegawa, M. Ishida, T. Nakajima, Y. Honda, O. Kitao, H. Nakai, 
 T. Vreven, K. Throssell, J. A. Montgomery, Jr., J. E. Peralta, 
 F. Ogliaro, M. J. Bearpark, J. J. Heyd, E. N. Brothers, K. N. Kudin, 
 V. N. Staroverov, T. A. Keith, R. Kobayashi, J. Normand, 
 K. Raghavachari, A. P. Rendell, J. C. Burant, S. S. Iyengar, 
 J. Tomasi, M. Cossi, J. M. Millam, M. Klene, C. Adamo, R. Cammi, 
 J. W. Ochterski, R. L. Martin, K. Morokuma, O. Farkas, 
 J. B. Foresman, and D. J. Fox, Gaussian, Inc., Wallingford CT, 2016.
 
 ******************************************
 Gaussian 16:  ES64L-G16RevA.03 25-Dec-2016
                31-May-2025 
 ******************************************
 %mem=16GB
 %oldchk=cation.chk
 %chk=fc.chk
 Copying data from "cation.chk" to current chk file "fc.chk"
 IOpt=  2 FromEx=T IUOpen= 4 IOptOp= 5 NList=   0 IFRang= 0 IUIn= 4 IUOut= 2.
 ----------------------------------------------------------------------
 #P b3lyp/6-311G* EmpiricalDispersion=GD3BJ Geom=AllCheck Freq=(READFC,
 FC,ReadFCHT)
 ----------------------------------------------------------------------
 1/29=7,38=1,172=1/1;
 2/12=2,40=1/2;
 7/8=1,25=11,71=10,121=1/16,18;
 99/5=5/99;
 Leave Link    1 at Sat May 31 03:38:31 2025, MaxMem=  2147483648 cpu:               0.0 elap:               0.1
 (Enter /global/homes/r/rkang35/g16/l101.exe)
 Structure from the checkpoint file:  "fc.chk"
 ------------------------------
 Gaussian input prepared by ASE
 ------------------------------
 Charge =  1 Multiplicity = 2
 Redundant internal coordinates found in file.  (old form).
 C,0,4.8846549084,3.4882835298,4.8277422715
 C,0,2.5638607584,2.5217164703,3.4905078122
 C,0,6.0355500745,3.9411262292,5.5075037063
 C,0,1.4129655909,2.0688737712,2.8107463772
 C,0,6.6249396456,3.160466982,6.4916924322
 C,0,0.8235760209,2.8495330175,1.8265576518
 C,0,6.0848903796,1.9096675171,6.8249692443
 C,0,1.3636252881,4.1003324827,1.4932808384
 C,0,4.9540503078,1.4363128915,6.1749157303
 C,0,2.4944653584,4.5736871087,2.1433343527
 C,0,4.3310351801,2.206037898,5.1693945277
 C,0,3.1174804865,3.8039621019,3.1488555559
 C,0,4.2644039256,4.2560198531,3.8257918042
 C,0,3.1841117407,1.7539801471,4.4924582789
 H,0,6.4574885454,4.9073403974,5.2540325088
 H,0,0.9910271213,1.1026596027,3.0642175758
 H,0,7.5082640081,3.5189896895,7.0065352866
 H,0,-0.0597483415,2.4910103119,1.3117147961
 H,0,6.554273098,1.3095167672,7.5952694575
 H,0,0.8942425687,4.7004832311,0.7229806248
 H,0,4.5409164397,0.4685293767,6.4367691353
 H,0,2.9075992277,5.5414706232,1.8814809482
 H,0,4.6823596612,5.2239983155,3.5678739515
 H,0,2.7661560054,0.7860016847,4.7503761319
 Recover connectivity data from disk.
 ITRead=  0  0  0  0  0  0  0  0  0  0  0  0  0  0  0  0  0  0  0  0
 ITRead=  0  0  0  0
 MicOpt= -1 -1 -1 -1 -1 -1 -1 -1 -1 -1 -1 -1 -1 -1 -1 -1 -1 -1 -1 -1
 MicOpt= -1 -1 -1 -1
                           ----------------------------
                           !    Current Parameters    !
                           ! (Angstroms and Degrees)  !
 --------------------------                            --------------------------
 ! Name  Definition              Value          Derivative Info.                !
 --------------------------------------------------------------------------------
 ! R1    R(1,3)                  1.4113         estimate D2E/DX2                !
 ! R2    R(1,11)                 1.4378         estimate D2E/DX2                !
 ! R3    R(1,13)                 1.4064         estimate D2E/DX2                !
 ! R4    R(2,4)                  1.4113         estimate D2E/DX2                !
 ! R5    R(2,12)                 1.4378         estimate D2E/DX2                !
 ! R6    R(2,14)                 1.4064         estimate D2E/DX2                !
 ! R7    R(3,5)                  1.3876         estimate D2E/DX2                !
 ! R8    R(3,15)                 1.0844         estimate D2E/DX2                !
 ! R9    R(4,6)                  1.3876         estimate D2E/DX2                !
 ! R10   R(4,16)                 1.0844         estimate D2E/DX2                !
 ! R11   R(5,7)                  1.4026         estimate D2E/DX2                !
 ! R12   R(5,17)                 1.0834         estimate D2E/DX2                !
 ! R13   R(6,8)                  1.4026         estimate D2E/DX2                !
 ! R14   R(6,18)                 1.0834         estimate D2E/DX2                !
 ! R15   R(7,9)                  1.3876         estimate D2E/DX2                !
 ! R16   R(7,19)                 1.0834         estimate D2E/DX2                !
 ! R17   R(8,10)                 1.3876         estimate D2E/DX2                !
 ! R18   R(8,20)                 1.0834         estimate D2E/DX2                !
 ! R19   R(9,11)                 1.4113         estimate D2E/DX2                !
 ! R20   R(9,21)                 1.0844         estimate D2E/DX2                !
 ! R21   R(10,12)                1.4113         estimate D2E/DX2                !
 ! R22   R(10,22)                1.0844         estimate D2E/DX2                !
 ! R23   R(11,14)                1.4064         estimate D2E/DX2                !
 ! R24   R(12,13)                1.4064         estimate D2E/DX2                !
 ! R25   R(13,23)                1.0854         estimate D2E/DX2                !
 ! R26   R(14,24)                1.0854         estimate D2E/DX2                !
 ! A1    A(3,1,11)             119.0582         estimate D2E/DX2                !
 ! A2    A(3,1,13)             121.8454         estimate D2E/DX2                !
 ! A3    A(11,1,13)            119.0964         estimate D2E/DX2                !
 ! A4    A(4,2,12)             119.0582         estimate D2E/DX2                !
 ! A5    A(4,2,14)             121.8454         estimate D2E/DX2                !
 ! A6    A(12,2,14)            119.0964         estimate D2E/DX2                !
 ! A7    A(1,3,5)              120.4972         estimate D2E/DX2                !
 ! A8    A(1,3,15)             119.3828         estimate D2E/DX2                !
 ! A9    A(5,3,15)             120.12           estimate D2E/DX2                !
 ! A10   A(2,4,6)              120.4972         estimate D2E/DX2                !
 ! A11   A(2,4,16)             119.3828         estimate D2E/DX2                !
 ! A12   A(6,4,16)             120.12           estimate D2E/DX2                !
 ! A13   A(3,5,7)              120.4445         estimate D2E/DX2                !
 ! A14   A(3,5,17)             119.8128         estimate D2E/DX2                !
 ! A15   A(7,5,17)             119.7427         estimate D2E/DX2                !
 ! A16   A(4,6,8)              120.4445         estimate D2E/DX2                !
 ! A17   A(4,6,18)             119.8128         estimate D2E/DX2                !
 ! A18   A(8,6,18)             119.7427         estimate D2E/DX2                !
 ! A19   A(5,7,9)              120.4438         estimate D2E/DX2                !
 ! A20   A(5,7,19)             119.743          estimate D2E/DX2                !
 ! A21   A(9,7,19)             119.8132         estimate D2E/DX2                !
 ! A22   A(6,8,10)             120.4438         estimate D2E/DX2                !
 ! A23   A(6,8,20)             119.743          estimate D2E/DX2                !
 ! A24   A(10,8,20)            119.8132         estimate D2E/DX2                !
 ! A25   A(7,9,11)             120.4971         estimate D2E/DX2                !
 ! A26   A(7,9,21)             120.1206         estimate D2E/DX2                !
 ! A27   A(11,9,21)            119.3823         estimate D2E/DX2                !
 ! A28   A(8,10,12)            120.4971         estimate D2E/DX2                !
 ! A29   A(8,10,22)            120.1206         estimate D2E/DX2                !
 ! A30   A(12,10,22)           119.3823         estimate D2E/DX2                !
 ! A31   A(1,11,9)             119.0592         estimate D2E/DX2                !
 ! A32   A(1,11,14)            119.0954         estimate D2E/DX2                !
 ! A33   A(9,11,14)            121.8453         estimate D2E/DX2                !
 ! A34   A(2,12,10)            119.0592         estimate D2E/DX2                !
 ! A35   A(2,12,13)            119.0954         estimate D2E/DX2                !
 ! A36   A(10,12,13)           121.8453         estimate D2E/DX2                !
 ! A37   A(1,13,12)            121.8082         estimate D2E/DX2                !
 ! A38   A(1,13,23)            119.0956         estimate D2E/DX2                !
 ! A39   A(12,13,23)           119.0963         estimate D2E/DX2                !
 ! A40   A(2,14,11)            121.8082         estimate D2E/DX2                !
 ! A41   A(2,14,24)            119.0956         estimate D2E/DX2                !
 ! A42   A(11,14,24)           119.0963         estimate D2E/DX2                !
 ! D1    D(11,1,3,5)            -0.0001         estimate D2E/DX2                !
 ! D2    D(11,1,3,15)          179.9992         estimate D2E/DX2                !
 ! D3    D(13,1,3,5)          -179.9992         estimate D2E/DX2                !
 ! D4    D(13,1,3,15)            0.0            estimate D2E/DX2                !
 ! D5    D(3,1,11,9)             0.001          estimate D2E/DX2                !
 ! D6    D(3,1,11,14)         -179.9997         estimate D2E/DX2                !
 ! D7    D(13,1,11,9)         -179.9998         estimate D2E/DX2                !
 ! D8    D(13,1,11,14)          -0.0005         estimate D2E/DX2                !
 ! D9    D(3,1,13,12)          179.9997         estimate D2E/DX2                !
 ! D10   D(3,1,13,23)            0.0            estimate D2E/DX2                !
 ! D11   D(11,1,13,12)           0.0005         estimate D2E/DX2                !
 ! D12   D(11,1,13,23)        -179.9991         estimate D2E/DX2                !
 ! D13   D(12,2,4,6)             0.0001         estimate D2E/DX2                !
 ! D14   D(12,2,4,16)         -179.9992         estimate D2E/DX2                !
 ! D15   D(14,2,4,6)           179.9992         estimate D2E/DX2                !
 ! D16   D(14,2,4,16)            0.0            estimate D2E/DX2                !
 ! D17   D(4,2,12,10)           -0.001          estimate D2E/DX2                !
 ! D18   D(4,2,12,13)          179.9997         estimate D2E/DX2                !
 ! D19   D(14,2,12,10)         179.9998         estimate D2E/DX2                !
 ! D20   D(14,2,12,13)           0.0005         estimate D2E/DX2                !
 ! D21   D(4,2,14,11)         -179.9997         estimate D2E/DX2                !
 ! D22   D(4,2,14,24)            0.0            estimate D2E/DX2                !
 ! D23   D(12,2,14,11)          -0.0005         estimate D2E/DX2                !
 ! D24   D(12,2,14,24)         179.9991         estimate D2E/DX2                !
 ! D25   D(1,3,5,7)             -0.0002         estimate D2E/DX2                !
 ! D26   D(1,3,5,17)          -179.9998         estimate D2E/DX2                !
 ! D27   D(15,3,5,7)          -179.9995         estimate D2E/DX2                !
 ! D28   D(15,3,5,17)            0.0009         estimate D2E/DX2                !
 ! D29   D(2,4,6,8)              0.0002         estimate D2E/DX2                !
 ! D30   D(2,4,6,18)           179.9998         estimate D2E/DX2                !
 ! D31   D(16,4,6,8)           179.9995         estimate D2E/DX2                !
 ! D32   D(16,4,6,18)           -0.0009         estimate D2E/DX2                !
 ! D33   D(3,5,7,9)             -0.0004         estimate D2E/DX2                !
 ! D34   D(3,5,7,19)          -179.9981         estimate D2E/DX2                !
 ! D35   D(17,5,7,9)           179.9991         estimate D2E/DX2                !
 ! D36   D(17,5,7,19)            0.0015         estimate D2E/DX2                !
 ! D37   D(4,6,8,10)             0.0004         estimate D2E/DX2                !
 ! D38   D(4,6,8,20)           179.9981         estimate D2E/DX2                !
 ! D39   D(18,6,8,10)         -179.9991         estimate D2E/DX2                !
 ! D40   D(18,6,8,20)           -0.0015         estimate D2E/DX2                !
 ! D41   D(5,7,9,11)             0.0014         estimate D2E/DX2                !
 ! D42   D(5,7,9,21)          -179.9986         estimate D2E/DX2                !
 ! D43   D(19,7,9,11)          179.999          estimate D2E/DX2                !
 ! D44   D(19,7,9,21)           -0.001          estimate D2E/DX2                !
 ! D45   D(6,8,10,12)           -0.0014         estimate D2E/DX2                !
 ! D46   D(6,8,10,22)          179.9986         estimate D2E/DX2                !
 ! D47   D(20,8,10,12)        -179.999          estimate D2E/DX2                !
 ! D48   D(20,8,10,22)           0.001          estimate D2E/DX2                !
 ! D49   D(7,9,11,1)            -0.0017         estimate D2E/DX2                !
 ! D50   D(7,9,11,14)          179.999          estimate D2E/DX2                !
 ! D51   D(21,9,11,1)          179.9984         estimate D2E/DX2                !
 ! D52   D(21,9,11,14)          -0.0009         estimate D2E/DX2                !
 ! D53   D(8,10,12,2)            0.0017         estimate D2E/DX2                !
 ! D54   D(8,10,12,13)        -179.999          estimate D2E/DX2                !
 ! D55   D(22,10,12,2)        -179.9984         estimate D2E/DX2                !
 ! D56   D(22,10,12,13)          0.0009         estimate D2E/DX2                !
 ! D57   D(1,11,14,2)            0.0005         estimate D2E/DX2                !
 ! D58   D(1,11,14,24)        -179.9991         estimate D2E/DX2                !
 ! D59   D(9,11,14,2)          179.9998         estimate D2E/DX2                !
 ! D60   D(9,11,14,24)           0.0002         estimate D2E/DX2                !
 ! D61   D(2,12,13,1)           -0.0005         estimate D2E/DX2                !
 ! D62   D(2,12,13,23)         179.9991         estimate D2E/DX2                !
 ! D63   D(10,12,13,1)        -179.9998         estimate D2E/DX2                !
 ! D64   D(10,12,13,23)         -0.0002         estimate D2E/DX2                !
 --------------------------------------------------------------------------------
 NAtoms=     24 NQM=       24 NQMF=       0 NMMI=      0 NMMIF=      0
                NMic=       0 NMicF=      0.
                    Isotopes and Nuclear Properties:
 (Nuclear quadrupole moments (NQMom) in fm**2, nuclear magnetic moments (NMagM)
  in nuclear magnetons)

  Atom         1           2           3           4           5           6           7           8           9          10
 IAtWgt=          12          12          12          12          12          12          12          12          12          12
 AtmWgt=  12.0000000  12.0000000  12.0000000  12.0000000  12.0000000  12.0000000  12.0000000  12.0000000  12.0000000  12.0000000
 NucSpn=           0           0           0           0           0           0           0           0           0           0
 AtZEff=   3.6000000   3.6000000   3.6000000   3.6000000   3.6000000   3.6000000   3.6000000   3.6000000   3.6000000   3.6000000
 NQMom=    0.0000000   0.0000000   0.0000000   0.0000000   0.0000000   0.0000000   0.0000000   0.0000000   0.0000000   0.0000000
 NMagM=    0.0000000   0.0000000   0.0000000   0.0000000   0.0000000   0.0000000   0.0000000   0.0000000   0.0000000   0.0000000
 AtZNuc=   6.0000000   6.0000000   6.0000000   6.0000000   6.0000000   6.0000000   6.0000000   6.0000000   6.0000000   6.0000000

  Atom        11          12          13          14          15          16          17          18          19          20
 IAtWgt=          12          12          12          12           1           1           1           1           1           1
 AtmWgt=  12.0000000  12.0000000  12.0000000  12.0000000   1.0078250   1.0078250   1.0078250   1.0078250   1.0078250   1.0078250
 NucSpn=           0           0           0           0           1           1           1           1           1           1
 AtZEff=   3.6000000   3.6000000   3.6000000   3.6000000   1.0000000   1.0000000   1.0000000   1.0000000   1.0000000   1.0000000
 NQMom=    0.0000000   0.0000000   0.0000000   0.0000000   0.0000000   0.0000000   0.0000000   0.0000000   0.0000000   0.0000000
 NMagM=    0.0000000   0.0000000   0.0000000   0.0000000   2.7928460   2.7928460   2.7928460   2.7928460   2.7928460   2.7928460
 AtZNuc=   6.0000000   6.0000000   6.0000000   6.0000000   1.0000000   1.0000000   1.0000000   1.0000000   1.0000000   1.0000000

  Atom        21          22          23          24
 IAtWgt=           1           1           1           1
 AtmWgt=   1.0078250   1.0078250   1.0078250   1.0078250
 NucSpn=           1           1           1           1
 AtZEff=   1.0000000   1.0000000   1.0000000   1.0000000
 NQMom=    0.0000000   0.0000000   0.0000000   0.0000000
 NMagM=    2.7928460   2.7928460   2.7928460   2.7928460
 AtZNuc=   1.0000000   1.0000000   1.0000000   1.0000000
 Leave Link  101 at Sat May 31 03:38:32 2025, MaxMem=  2147483648 cpu:               0.1 elap:               0.1
 (Enter /global/homes/r/rkang35/g16/l202.exe)
                          Input orientation:                          
 ---------------------------------------------------------------------
 Center     Atomic      Atomic             Coordinates (Angstroms)
 Number     Number       Type             X           Y           Z
 ---------------------------------------------------------------------
      1          6           0        4.884655    3.488284    4.827742
      2          6           0        2.563861    2.521716    3.490508
      3          6           0        6.035550    3.941126    5.507504
      4          6           0        1.412966    2.068874    2.810746
      5          6           0        6.624940    3.160467    6.491692
      6          6           0        0.823576    2.849533    1.826558
      7          6           0        6.084890    1.909668    6.824969
      8          6           0        1.363625    4.100332    1.493281
      9          6           0        4.954050    1.436313    6.174916
     10          6           0        2.494465    4.573687    2.143334
     11          6           0        4.331035    2.206038    5.169395
     12          6           0        3.117480    3.803962    3.148856
     13          6           0        4.264404    4.256020    3.825792
     14          6           0        3.184112    1.753980    4.492458
     15          1           0        6.457489    4.907340    5.254033
     16          1           0        0.991027    1.102660    3.064218
     17          1           0        7.508264    3.518990    7.006535
     18          1           0       -0.059748    2.491010    1.311715
     19          1           0        6.554273    1.309517    7.595269
     20          1           0        0.894243    4.700483    0.722981
     21          1           0        4.540916    0.468529    6.436769
     22          1           0        2.907599    5.541471    1.881481
     23          1           0        4.682360    5.223998    3.567874
     24          1           0        2.766156    0.786002    4.750376
 ---------------------------------------------------------------------
                    Distance matrix (angstroms):
                    1          2          3          4          5
     1  C    0.000000
     2  C    2.847549   0.000000
     3  C    1.411277   4.258594   0.000000
     4  C    4.258594   1.411277   5.669755   0.000000
     5  C    2.429976   5.089938   1.387601   6.473454   0.000000
     6  C    5.089938   2.429976   6.473454   1.387601   7.450905
     7  C    2.814518   4.887830   2.421771   6.161673   1.402578
     8  C    4.887830   2.814518   6.161673   2.421771   7.317711
     9  C    2.455662   3.754618   2.808767   4.925145   2.421761
    10  C    3.754618   2.455662   4.925145   2.808767   6.161674
    11  C    1.437837   2.457889   2.455651   3.754619   2.814499
    12  C    2.457889   1.437837   3.754619   2.455651   4.887833
    13  C    1.406426   2.451952   2.462574   3.734250   3.725505
    14  C    2.451952   1.406426   3.734250   2.462574   4.220715
    15  H    2.160845   4.895054   1.084366   6.282814   2.147419
    16  H    4.895054   2.160845   6.282814   1.084366   6.908193
    17  H    3.410485   6.148506   2.143404   7.540567   1.083450
    18  H    6.148506   3.410485   7.540567   2.143404   8.483242
    19  H    3.897930   5.851657   3.399001   7.064087   2.156129
    20  H    5.851657   3.897930   7.064087   3.399001   8.275903
    21  H    3.438901   4.099364   3.893121   5.049081   3.404805
    22  H    4.099364   3.438901   5.049081   3.893121   6.382934
    23  H    2.154274   3.434582   2.690548   4.606190   4.071915
    24  H    3.434582   2.154274   4.606190   2.690548   4.853914
                    6          7          8          9         10
     6  C    0.000000
     7  C    7.317711   0.000000
     8  C    1.402578   7.450923   0.000000
     9  C    6.161674   1.387600   6.473473   0.000000
    10  C    2.421761   6.473473   1.387600   5.669773   0.000000
    11  C    4.887833   2.429973   5.089959   1.411275   4.258614
    12  C    2.814499   5.089959   2.429973   4.258614   1.411275
    13  C    4.220715   4.220735   3.725502   3.734266   2.462571
    14  C    3.725505   3.725502   4.220735   2.462571   3.734266
    15  H    6.908193   3.404808   6.382943   3.893120   5.049091
    16  H    2.147419   6.382943   3.404808   5.049091   3.893120
    17  H    8.483242   2.156125   8.275900   3.398991   7.064084
    18  H    1.083450   8.275900   2.156125   7.064084   3.398991
    19  H    8.275903   1.083450   8.483262   2.143407   7.540586
    20  H    2.156129   8.483262   1.083450   7.540586   2.143407
    21  H    6.382934   2.147425   6.908202   1.084367   6.282823
    22  H    3.404805   6.908202   2.147425   6.282823   1.084367
    23  H    4.853914   4.853921   4.071923   4.606196   2.690557
    24  H    4.071915   4.071923   4.853921   2.690557   4.606196
                   11         12         13         14         15
    11  C    0.000000
    12  C    2.847570   0.000000
    13  C    2.451965   1.406425   0.000000
    14  C    1.406425   2.451965   2.805651   0.000000
    15  H    3.438896   4.099374   2.696982   4.608543   0.000000
    16  H    4.099374   3.438896   4.608543   2.696982   7.010926
    17  H    3.897911   5.851656   4.602496   5.304162   2.470407
    18  H    5.851656   3.897911   5.304162   4.602496   7.990926
    19  H    3.410485   6.148528   5.304182   4.602496   4.293611
    20  H    6.148528   3.410485   4.602496   5.304182   7.177947
    21  H    2.160839   4.895065   4.608551   2.696970   4.977465
    22  H    4.895065   2.160839   2.696970   4.608551   4.937402
    23  H    3.434586   2.154281   1.085445   3.891096   2.468701
    24  H    2.154281   3.434586   3.891096   1.085445   5.555631
                   16         17         18         19         20
    16  H    0.000000
    17  H    7.990926   0.000000
    18  H    2.470407   9.526937   0.000000
    19  H    7.177947   2.477595   9.199145   0.000000
    20  H    4.293611   9.199145   2.477595   9.526959   0.000000
    21  H    4.937402   4.293611   7.177933   2.470423   7.990935
    22  H    4.977465   7.177933   4.293611   7.990935   2.470423
    23  H    5.555631   4.766254   5.920056   5.920063   4.766269
    24  H    2.468701   5.920056   4.766254   4.766269   5.920063
                   21         22         23         24
    21  H    0.000000
    22  H    7.010928   0.000000
    23  H    5.555632   2.468701   0.000000
    24  H    2.468701   5.555632   4.976541   0.000000
 Stoichiometry    C14H10(1+,2)
 Framework group  CI[X(C14H10)]
 Deg. of freedom    33
 Full point group                 CI      NOp   2
 Largest Abelian subgroup         CI      NOp   2
 Largest concise Abelian subgroup CI      NOp   2
                         Standard orientation:                         
 ---------------------------------------------------------------------
 Center     Atomic      Atomic             Coordinates (Angstroms)
 Number     Number       Type             X           Y           Z
 ---------------------------------------------------------------------
      1          6           0        1.160397    0.483284    0.668617
      2          6           0       -1.160397   -0.483284   -0.668617
      3          6           0        2.311292    0.936126    1.348379
      4          6           0       -2.311292   -0.936126   -1.348379
      5          6           0        2.900682    0.155467    2.332567
      6          6           0       -2.900682   -0.155467   -2.332567
      7          6           0        2.360633   -1.095332    2.665844
      8          6           0       -2.360633    1.095332   -2.665844
      9          6           0        1.229792   -1.568687    2.015791
     10          6           0       -1.229792    1.568687   -2.015791
     11          6           0        0.606777   -0.798962    1.010269
     12          6           0       -0.606777    0.798962   -1.010269
     13          6           0        0.540146    1.251020   -0.333333
     14          6           0       -0.540146   -1.251020    0.333333
     15          1           0        2.733231    1.902340    1.094907
     16          1           0       -2.733231   -1.902340   -1.094907
     17          1           0        3.784006    0.513990    2.847410
     18          1           0       -3.784006   -0.513990   -2.847410
     19          1           0        2.830015   -1.695483    3.436144
     20          1           0       -2.830015    1.695483   -3.436144
     21          1           0        0.816659   -2.536471    2.277644
     22          1           0       -0.816659    2.536471   -2.277644
     23          1           0        0.958102    2.218998   -0.591251
     24          1           0       -0.958102   -2.218998    0.591251
 ---------------------------------------------------------------------
 Rotational constants (GHZ):           2.1601941           0.4528400           0.3743626
 Leave Link  202 at Sat May 31 03:38:32 2025, MaxMem=  2147483648 cpu:               0.0 elap:               0.0
 (Enter /global/homes/r/rkang35/g16/l716.exe)
 Electric field and nuclear coordinate derivatives read from checkpoint file.
 Rotating derivatives to standard orientation.
 Dipole        = 7.03782732D+00 5.67862700D+00 7.85960725D+00
 Polarizability= 2.09182623D+02 9.05105441D+00 1.37335565D+02
                 1.24633730D+02-4.49963060D+01 1.86321992D+02
 Full mass-weighted force constant matrix:
 Low frequencies ---   -6.8440   -0.0006   -0.0005   -0.0005    2.4640    2.8968
 Low frequencies ---   84.4353  118.4705  217.0868
 Diagonal vibrational polarizability:
       12.1894057       4.8737475      14.1114589
 Harmonic frequencies (cm**-1), IR intensities (KM/Mole), Raman scattering
 activities (A**4/AMU), depolarization ratios for plane and unpolarized
 incident light, reduced masses (AMU), force constants (mDyne/A),
 and normal coordinates:
                      1                      2                      3
                     AU                     AU                     AG
 Frequencies --     84.4353               118.4705               217.0868
 Red. masses --      4.8846                 3.7693                 4.8581
 Frc consts  --      0.0205                 0.0312                 0.1349
 IR Inten    --      2.1008                 0.0000                 0.0000
  Atom  AN      X      Y      Z        X      Y      Z        X      Y      Z
     1   6     0.09  -0.06  -0.10    -0.04   0.03   0.04    -0.12   0.09   0.15
     2   6     0.09  -0.06  -0.10    -0.04   0.03   0.04     0.12  -0.09  -0.15
     3   6    -0.01   0.00   0.01    -0.12   0.09   0.14    -0.09   0.06   0.10
     4   6    -0.01   0.00   0.01    -0.12   0.09   0.14     0.09  -0.06  -0.10
     5   6    -0.12   0.09   0.15    -0.07   0.06   0.09     0.08  -0.06  -0.10
     6   6    -0.12   0.09   0.15    -0.07   0.06   0.09    -0.08   0.06   0.10
     7   6    -0.12   0.09   0.15     0.07  -0.06  -0.09     0.08  -0.06  -0.10
     8   6    -0.12   0.09   0.15     0.07  -0.06  -0.09    -0.08   0.06   0.10
     9   6    -0.01   0.00   0.01     0.12  -0.09  -0.14    -0.09   0.06   0.10
    10   6    -0.01   0.00   0.01     0.12  -0.09  -0.14     0.09  -0.06  -0.10
    11   6     0.08  -0.06  -0.10     0.04  -0.03  -0.04    -0.12   0.09   0.15
    12   6     0.08  -0.06  -0.10     0.04  -0.03  -0.04     0.12  -0.09  -0.15
    13   6     0.12  -0.09  -0.14     0.00  -0.00  -0.00     0.00  -0.00  -0.00
    14   6     0.12  -0.09  -0.14     0.00  -0.00  -0.00    -0.00   0.00   0.00
    15   1    -0.00   0.00   0.00    -0.21   0.16   0.25    -0.11   0.08   0.13
    16   1    -0.00   0.00   0.00    -0.21   0.16   0.25     0.11  -0.08  -0.13
    17   1    -0.22   0.16   0.26    -0.14   0.11   0.17     0.20  -0.15  -0.24
    18   1    -0.22   0.16   0.26    -0.14   0.11   0.17    -0.20   0.15   0.24
    19   1    -0.22   0.16   0.26     0.14  -0.10  -0.17     0.20  -0.15  -0.24
    20   1    -0.22   0.16   0.26     0.14  -0.10  -0.17    -0.20   0.15   0.24
    21   1    -0.00   0.00   0.00     0.21  -0.16  -0.25    -0.11   0.08   0.13
    22   1    -0.00   0.00   0.00     0.21  -0.16  -0.25     0.11  -0.08  -0.13
    23   1     0.12  -0.09  -0.15     0.00  -0.00  -0.00     0.00  -0.00  -0.00
    24   1     0.12  -0.09  -0.15     0.00  -0.00  -0.00    -0.00   0.00   0.00
                      4                      5                      6
                     AU                     AG                     AU
 Frequencies --    235.5875               269.8971               382.9210
 Red. masses --      4.4761                 3.5070                 3.1443
 Frc consts  --      0.1464                 0.1505                 0.2716
 IR Inten    --      0.4765                 0.0000                 0.1400
  Atom  AN      X      Y      Z        X      Y      Z        X      Y      Z
     1   6    -0.07  -0.12   0.02    -0.04   0.03   0.05     0.00  -0.00  -0.00
     2   6    -0.07  -0.12   0.02     0.04  -0.03  -0.05     0.00  -0.00  -0.00
     3   6    -0.08   0.03  -0.09     0.05  -0.03  -0.06     0.10  -0.07  -0.11
     4   6    -0.08   0.03  -0.09    -0.05   0.03   0.06     0.10  -0.07  -0.11
     5   6     0.03   0.16  -0.08     0.07  -0.06  -0.09    -0.04   0.03   0.05
     6   6     0.03   0.16  -0.08    -0.07   0.06   0.09    -0.04   0.03   0.05
     7   6     0.10   0.15  -0.01    -0.07   0.06   0.09    -0.04   0.03   0.05
     8   6     0.10   0.15  -0.01     0.07  -0.06  -0.09    -0.04   0.03   0.05
     9   6     0.10   0.00   0.08    -0.05   0.03   0.06     0.10  -0.07  -0.11
    10   6     0.10   0.00   0.08     0.05  -0.03  -0.06     0.10  -0.07  -0.11
    11   6    -0.03  -0.12   0.05     0.04  -0.03  -0.05     0.00  -0.00  -0.00
    12   6    -0.03  -0.12   0.05    -0.04   0.03   0.05     0.00  -0.00  -0.00
    13   6    -0.06  -0.14   0.04    -0.14   0.10   0.17    -0.10   0.08   0.12
    14   6    -0.06  -0.14   0.04     0.14  -0.10  -0.17    -0.10   0.08   0.12
    15   1    -0.20   0.06  -0.20     0.09  -0.06  -0.10     0.19  -0.15  -0.23
    16   1    -0.20   0.06  -0.20    -0.09   0.06   0.10     0.19  -0.15  -0.23
    17   1     0.03   0.24  -0.13     0.16  -0.12  -0.19    -0.11   0.08   0.13
    18   1     0.03   0.24  -0.13    -0.16   0.12   0.19    -0.11   0.08   0.13
    19   1     0.17   0.22   0.01    -0.16   0.12   0.19    -0.11   0.08   0.13
    20   1     0.17   0.22   0.01     0.16  -0.12  -0.19    -0.11   0.08   0.13
    21   1     0.21  -0.02   0.19    -0.09   0.06   0.10     0.19  -0.15  -0.23
    22   1     0.21  -0.02   0.19     0.09  -0.06  -0.10     0.19  -0.15  -0.23
    23   1    -0.06  -0.14   0.04    -0.25   0.19   0.30    -0.19   0.14   0.23
    24   1    -0.06  -0.14   0.04     0.25  -0.19  -0.30    -0.19   0.14   0.23
                      7                      8                      9
                     AG                     AG                     AU
 Frequencies --    388.9214               397.9338               441.7729
 Red. masses --      4.8442                 6.7621                 2.3802
 Frc consts  --      0.4317                 0.6309                 0.2737
 IR Inten    --      0.0000                 0.0000                33.3984
  Atom  AN      X      Y      Z        X      Y      Z        X      Y      Z
     1   6     0.12   0.16   0.00     0.08  -0.01   0.08     0.08  -0.06  -0.10
     2   6    -0.12  -0.16  -0.00    -0.08   0.01  -0.08     0.08  -0.06  -0.10
     3   6     0.16   0.08   0.08     0.13  -0.06   0.15    -0.03   0.02   0.04
     4   6    -0.16  -0.08  -0.08    -0.13   0.06  -0.15    -0.03   0.02   0.04
     5   6     0.05  -0.03   0.07     0.19  -0.03   0.18     0.01  -0.01  -0.02
     6   6    -0.05   0.03  -0.07    -0.19   0.03  -0.18     0.01  -0.01  -0.02
     7   6    -0.07  -0.01  -0.05     0.19  -0.03   0.18     0.01  -0.01  -0.02
     8   6     0.07   0.01   0.05    -0.19   0.03  -0.18     0.01  -0.01  -0.02
     9   6    -0.07   0.12  -0.14     0.17   0.01   0.13    -0.03   0.02   0.04
    10   6     0.07  -0.12   0.14    -0.17  -0.01  -0.13    -0.03   0.02   0.04
    11   6     0.02   0.18  -0.09     0.08  -0.02   0.08     0.08  -0.06  -0.10
    12   6    -0.02  -0.18   0.09    -0.08   0.02  -0.08     0.08  -0.06  -0.10
    13   6    -0.00   0.00  -0.00    -0.02  -0.06   0.02    -0.07   0.05   0.08
    14   6     0.00  -0.00   0.00     0.02   0.06  -0.02    -0.07   0.05   0.08
    15   1     0.24   0.07   0.16     0.15  -0.07   0.17    -0.15   0.12   0.19
    16   1    -0.24  -0.07  -0.16    -0.15   0.07  -0.17    -0.15   0.12   0.19
    17   1     0.06  -0.15   0.14     0.19   0.01   0.15    -0.02   0.02   0.02
    18   1    -0.06   0.15  -0.14    -0.19  -0.01  -0.15    -0.02   0.02   0.02
    19   1    -0.17  -0.11  -0.07     0.16  -0.07   0.18    -0.02   0.02   0.02
    20   1     0.17   0.11   0.07    -0.16   0.07  -0.18    -0.02   0.02   0.02
    21   1    -0.15   0.14  -0.21     0.18   0.01   0.15    -0.15   0.12   0.18
    22   1     0.15  -0.14   0.21    -0.18  -0.01  -0.15    -0.15   0.12   0.18
    23   1    -0.17   0.03  -0.17    -0.02  -0.05   0.01    -0.31   0.23   0.37
    24   1     0.17  -0.03   0.17     0.02   0.05  -0.01    -0.31   0.23   0.37
                     10                     11                     12
                     AG                     AU                     AG
 Frequencies --    457.9979               481.2936               521.9927
 Red. masses --      3.0851                 3.4597                 6.0548
 Frc consts  --      0.3813                 0.4722                 0.9720
 IR Inten    --      0.0000                 0.0000                 0.0000
  Atom  AN      X      Y      Z        X      Y      Z        X      Y      Z
     1   6    -0.10   0.07   0.11    -0.08   0.06   0.09     0.04  -0.13   0.12
     2   6     0.10  -0.07  -0.11    -0.08   0.06   0.09    -0.04   0.13  -0.12
     3   6     0.07  -0.06  -0.09    -0.05   0.04   0.06     0.07   0.01   0.05
     4   6    -0.07   0.06   0.09    -0.05   0.04   0.06    -0.07  -0.01  -0.05
     5   6    -0.03   0.02   0.04     0.10  -0.07  -0.12     0.14   0.13   0.04
     6   6     0.03  -0.02  -0.04     0.10  -0.07  -0.12    -0.14  -0.13  -0.04
     7   6    -0.03   0.02   0.04    -0.10   0.07   0.12    -0.02   0.15  -0.11
     8   6     0.03  -0.02  -0.04    -0.10   0.07   0.12     0.02  -0.15   0.11
     9   6     0.07  -0.06  -0.09     0.05  -0.04  -0.06    -0.05   0.03  -0.06
    10   6    -0.07   0.06   0.09     0.05  -0.04  -0.06     0.05  -0.03   0.06
    11   6    -0.10   0.07   0.11     0.08  -0.06  -0.09    -0.14  -0.10  -0.06
    12   6     0.10  -0.07  -0.11     0.08  -0.06  -0.09     0.14   0.10   0.06
    13   6    -0.00  -0.00   0.00    -0.00   0.00   0.00     0.19  -0.03   0.18
    14   6     0.00   0.00  -0.00    -0.00   0.00   0.00    -0.19   0.03  -0.18
    15   1     0.26  -0.20  -0.31    -0.08   0.06   0.09    -0.08   0.04  -0.09
    16   1    -0.26   0.20   0.31    -0.08   0.06   0.09     0.08  -0.04   0.09
    17   1    -0.01   0.01   0.02     0.24  -0.18  -0.29     0.14   0.06   0.08
    18   1     0.01  -0.01  -0.02     0.24  -0.18  -0.29    -0.14  -0.06  -0.08
    19   1    -0.01   0.01   0.02    -0.24   0.18   0.29    -0.08   0.10  -0.12
    20   1     0.01  -0.01  -0.02    -0.24   0.18   0.29     0.08  -0.10   0.12
    21   1     0.26  -0.20  -0.31     0.08  -0.06  -0.09     0.10   0.01   0.08
    22   1    -0.26   0.20   0.31     0.08  -0.06  -0.09    -0.10  -0.01  -0.08
    23   1    -0.00   0.00   0.00    -0.00   0.00   0.00     0.30  -0.05   0.29
    24   1     0.00  -0.00  -0.00    -0.00   0.00   0.00    -0.30   0.05  -0.29
                     13                     14                     15
                     AG                     AU                     AG
 Frequencies --    560.0206               613.1137               631.2475
 Red. masses --      2.7914                 6.8806                 6.8003
 Frc consts  --      0.5158                 1.5239                 1.5965
 IR Inten    --      0.0000                 1.6281                 0.0000
  Atom  AN      X      Y      Z        X      Y      Z        X      Y      Z
     1   6    -0.03   0.03   0.04     0.11   0.02   0.08    -0.11   0.03  -0.11
     2   6     0.03  -0.03  -0.04     0.11   0.02   0.08     0.11  -0.03   0.11
     3   6    -0.06   0.05   0.08     0.09   0.23  -0.07    -0.12  -0.20   0.03
     4   6     0.06  -0.05  -0.08     0.09   0.23  -0.07     0.12   0.20  -0.03
     5   6     0.08  -0.06  -0.10    -0.13   0.05  -0.14     0.06  -0.04   0.07
     6   6    -0.08   0.06   0.10    -0.13   0.05  -0.14    -0.06   0.04  -0.07
     7   6    -0.08   0.06   0.10    -0.15   0.00  -0.13     0.08   0.01   0.06
     8   6     0.08  -0.06  -0.10    -0.15   0.00  -0.13    -0.08  -0.01  -0.06
     9   6     0.06  -0.05  -0.08    -0.10  -0.22   0.05     0.06   0.21  -0.08
    10   6    -0.06   0.05   0.08    -0.10  -0.22   0.05    -0.06  -0.21   0.08
    11   6     0.03  -0.03  -0.04     0.08  -0.05   0.10    -0.12   0.01  -0.11
    12   6    -0.03   0.03   0.04     0.08  -0.05   0.10     0.12  -0.01   0.11
    13   6     0.06  -0.05  -0.07     0.10  -0.02   0.10     0.11   0.26  -0.07
    14   6    -0.06   0.05   0.07     0.10  -0.02   0.10    -0.11  -0.26   0.07
    15   1    -0.13   0.09   0.15     0.09   0.23  -0.06    -0.12  -0.20   0.03
    16   1     0.13  -0.09  -0.15     0.09   0.23  -0.06     0.12   0.20  -0.03
    17   1     0.19  -0.14  -0.23    -0.13  -0.15  -0.01     0.06   0.13  -0.04
    18   1    -0.19   0.14   0.23    -0.13  -0.15  -0.01    -0.06  -0.13   0.04
    19   1    -0.19   0.14   0.23     0.01   0.17  -0.10    -0.06  -0.13   0.03
    20   1     0.19  -0.14  -0.23     0.01   0.17  -0.10     0.06   0.13  -0.03
    21   1     0.13  -0.09  -0.15    -0.10  -0.23   0.06     0.06   0.21  -0.08
    22   1    -0.13   0.09   0.15    -0.10  -0.23   0.06    -0.06  -0.21   0.08
    23   1     0.19  -0.14  -0.22     0.12  -0.02   0.11     0.11   0.26  -0.07
    24   1    -0.19   0.14   0.22     0.12  -0.02   0.11    -0.11  -0.26   0.07
                     16                     17                     18
                     AU                     AU                     AG
 Frequencies --    670.8448               733.1806               753.5799
 Red. masses --      6.0342                 3.8924                 3.2461
 Frc consts  --      1.6000                 1.2328                 1.0861
 IR Inten    --      0.0017                 0.0000                 0.0000
  Atom  AN      X      Y      Z        X      Y      Z        X      Y      Z
     1   6     0.05  -0.06   0.08    -0.13   0.10   0.16    -0.12   0.09   0.14
     2   6     0.05  -0.06   0.08    -0.13   0.10   0.16     0.12  -0.09  -0.14
     3   6     0.15   0.03   0.11     0.04  -0.03  -0.05     0.03  -0.02  -0.04
     4   6     0.15   0.03   0.11     0.04  -0.03  -0.05    -0.03   0.02   0.04
     5   6     0.18   0.06   0.12    -0.05   0.04   0.06    -0.04   0.03   0.04
     6   6     0.18   0.06   0.12    -0.05   0.04   0.06     0.04  -0.03  -0.04
     7   6    -0.11   0.11  -0.16     0.05  -0.04  -0.06     0.04  -0.03  -0.04
     8   6    -0.11   0.11  -0.16     0.05  -0.04  -0.06    -0.04   0.03   0.04
     9   6    -0.10   0.08  -0.13    -0.04   0.03   0.05    -0.03   0.02   0.04
    10   6    -0.10   0.08  -0.13    -0.04   0.03   0.05     0.03  -0.02  -0.04
    11   6    -0.09  -0.03  -0.06     0.13  -0.10  -0.16     0.12  -0.09  -0.14
    12   6    -0.09  -0.03  -0.06     0.13  -0.10  -0.16    -0.12   0.09   0.14
    13   6    -0.07  -0.16   0.04     0.00   0.00   0.00     0.02  -0.01  -0.02
    14   6    -0.07  -0.16   0.04     0.00   0.00   0.00    -0.02   0.01   0.02
    15   1     0.07   0.05   0.03     0.24  -0.18  -0.29     0.15  -0.11  -0.18
    16   1     0.07   0.05   0.03     0.24  -0.18  -0.29    -0.15   0.11   0.18
    17   1     0.19  -0.13   0.24    -0.06   0.04   0.07    -0.04   0.03   0.04
    18   1     0.19  -0.13   0.24    -0.06   0.04   0.07     0.04  -0.03  -0.04
    19   1    -0.27  -0.05  -0.19     0.06  -0.04  -0.07     0.04  -0.03  -0.04
    20   1    -0.27  -0.05  -0.19     0.06  -0.04  -0.07    -0.04   0.03   0.04
    21   1    -0.02   0.06  -0.06    -0.24   0.18   0.29    -0.15   0.11   0.18
    22   1    -0.02   0.06  -0.06    -0.24   0.18   0.29     0.15  -0.11  -0.18
    23   1    -0.07  -0.16   0.04     0.00   0.00   0.00     0.30  -0.22  -0.35
    24   1    -0.07  -0.16   0.04     0.00   0.00   0.00    -0.30   0.22   0.35
                     19                     20                     21
                     AU                     AG                     AG
 Frequencies --    761.5277               769.3831               769.4161
 Red. masses --      1.1693                 5.0934                 1.2624
 Frc consts  --      0.3995                 1.7764                 0.4403
 IR Inten    --     98.5050                 0.0000                 0.0000
  Atom  AN      X      Y      Z        X      Y      Z        X      Y      Z
     1   6    -0.01   0.01   0.01     0.06   0.10  -0.04    -0.02   0.03   0.02
     2   6    -0.01   0.01   0.01    -0.06  -0.10   0.04     0.02  -0.03  -0.02
     3   6     0.02  -0.02  -0.03     0.10   0.15   0.02     0.03  -0.01  -0.03
     4   6     0.02  -0.02  -0.03    -0.10  -0.15  -0.02    -0.03   0.01   0.03
     5   6     0.02  -0.02  -0.03    -0.01   0.01   0.01     0.02  -0.02  -0.03
     6   6     0.02  -0.02  -0.03     0.01  -0.01  -0.01    -0.02   0.02   0.03
     7   6     0.02  -0.02  -0.03    -0.01  -0.00   0.01     0.02  -0.02  -0.03
     8   6     0.02  -0.02  -0.03     0.01   0.00  -0.01    -0.02   0.02   0.03
     9   6     0.02  -0.02  -0.03    -0.03  -0.15   0.10     0.02  -0.03  -0.02
    10   6     0.02  -0.02  -0.03     0.03   0.15  -0.10    -0.02   0.03   0.02
    11   6    -0.01   0.01   0.01    -0.04  -0.12   0.02    -0.03   0.01   0.03
    12   6    -0.01   0.01   0.01     0.04   0.12  -0.02     0.03  -0.01  -0.03
    13   6    -0.01   0.01   0.01     0.11   0.26  -0.07     0.01   0.02  -0.01
    14   6    -0.01   0.01   0.01    -0.11  -0.26   0.07    -0.01  -0.02   0.01
    15   1    -0.17   0.13   0.20     0.25   0.09   0.01    -0.14   0.13   0.20
    16   1    -0.17   0.13   0.20    -0.25  -0.09  -0.01     0.14  -0.13  -0.20
    17   1    -0.22   0.16   0.26     0.09  -0.17  -0.02    -0.24   0.17   0.29
    18   1    -0.22   0.16   0.26    -0.09   0.17   0.02     0.24  -0.17  -0.29
    19   1    -0.22   0.16   0.26     0.18   0.03  -0.08    -0.23   0.19   0.28
    20   1    -0.22   0.16   0.26    -0.18  -0.03   0.08     0.23  -0.19  -0.28
    21   1    -0.17   0.13   0.20     0.12  -0.22   0.10    -0.15   0.10   0.21
    22   1    -0.17   0.13   0.20    -0.12   0.22  -0.10     0.15  -0.10  -0.21
    23   1     0.11  -0.09  -0.14     0.12   0.27  -0.07     0.01   0.02  -0.01
    24   1     0.11  -0.09  -0.14    -0.12  -0.27   0.07    -0.01  -0.02   0.01
                     22                     23                     24
                     AU                     AG                     AU
 Frequencies --    838.9517               862.9898               895.3040
 Red. masses --      3.5979                 1.2995                 1.4171
 Frc consts  --      1.4920                 0.5702                 0.6693
 IR Inten    --      2.6740                 0.0000                 0.0000
  Atom  AN      X      Y      Z        X      Y      Z        X      Y      Z
     1   6     0.00  -0.10   0.06    -0.01   0.00   0.01    -0.02   0.02   0.03
     2   6     0.00  -0.10   0.06     0.01  -0.00  -0.01    -0.02   0.02   0.03
     3   6    -0.10  -0.11  -0.02    -0.03   0.03   0.04     0.05  -0.04  -0.06
     4   6    -0.10  -0.11  -0.02     0.03  -0.03  -0.04     0.05  -0.04  -0.06
     5   6    -0.06  -0.01  -0.05    -0.01   0.01   0.01     0.02  -0.01  -0.02
     6   6    -0.06  -0.01  -0.05     0.01  -0.01  -0.01     0.02  -0.01  -0.02
     7   6    -0.04   0.03  -0.06     0.01  -0.01  -0.01    -0.02   0.01   0.02
     8   6    -0.04   0.03  -0.06    -0.01   0.01   0.01    -0.02   0.01   0.02
     9   6    -0.00   0.12  -0.08     0.03  -0.03  -0.04    -0.05   0.04   0.06
    10   6    -0.00   0.12  -0.08    -0.03   0.03   0.04    -0.05   0.04   0.06
    11   6     0.08   0.08   0.01     0.01  -0.00  -0.01     0.02  -0.02  -0.03
    12   6     0.08   0.08   0.01    -0.01   0.00   0.01     0.02  -0.02  -0.03
    13   6     0.14  -0.02   0.13     0.04  -0.03  -0.05    -0.00  -0.00  -0.00
    14   6     0.14  -0.02   0.13    -0.04   0.03   0.05    -0.00  -0.00  -0.00
    15   1    -0.18  -0.10  -0.09     0.22  -0.16  -0.26    -0.25   0.19   0.30
    16   1    -0.18  -0.10  -0.09    -0.22   0.16   0.26    -0.25   0.19   0.30
    17   1    -0.07   0.05  -0.09     0.09  -0.07  -0.11    -0.13   0.10   0.15
    18   1    -0.07   0.05  -0.09    -0.09   0.07   0.11    -0.13   0.10   0.15
    19   1    -0.10  -0.02  -0.07    -0.09   0.07   0.11     0.13  -0.10  -0.15
    20   1    -0.10  -0.02  -0.07     0.09  -0.07  -0.11     0.13  -0.10  -0.15
    21   1    -0.08   0.15  -0.16    -0.22   0.16   0.26     0.25  -0.19  -0.30
    22   1    -0.08   0.15  -0.16     0.22  -0.16  -0.26     0.25  -0.19  -0.30
    23   1     0.36  -0.06   0.34    -0.23   0.17   0.27    -0.00  -0.00   0.00
    24   1     0.36  -0.06   0.34     0.23  -0.17  -0.27    -0.00  -0.00   0.00
                     25                     26                     27
                     AU                     AU                     AG
 Frequencies --    920.9729               921.3302               931.8251
 Red. masses --      5.6138                 1.4629                 5.3559
 Frc consts  --      2.8054                 0.7316                 2.7400
 IR Inten    --      0.6274                36.0481                 0.0000
  Atom  AN      X      Y      Z        X      Y      Z        X      Y      Z
     1   6    -0.05  -0.03  -0.02    -0.03   0.02   0.03    -0.07  -0.00  -0.06
     2   6    -0.05  -0.03  -0.02    -0.03   0.02   0.03     0.07   0.00   0.06
     3   6    -0.08  -0.18   0.05    -0.00   0.00   0.00    -0.03  -0.13   0.06
     4   6    -0.08  -0.18   0.05    -0.00   0.00   0.00     0.03   0.13  -0.06
     5   6     0.14   0.08   0.07     0.02  -0.01  -0.02     0.18   0.06   0.11
     6   6     0.14   0.08   0.07     0.02  -0.01  -0.02    -0.18  -0.06  -0.11
     7   6    -0.06   0.12  -0.12     0.02  -0.01  -0.02    -0.11   0.11  -0.16
     8   6    -0.06   0.12  -0.12     0.02  -0.01  -0.02     0.11  -0.11   0.16
     9   6    -0.08  -0.18   0.05    -0.00   0.00   0.00    -0.08  -0.12   0.01
    10   6    -0.08  -0.18   0.05    -0.00   0.00   0.00     0.08   0.12  -0.01
    11   6     0.02  -0.04   0.04    -0.03   0.02   0.03     0.06  -0.03   0.07
    12   6     0.02  -0.04   0.04    -0.03   0.02   0.03    -0.06   0.03  -0.07
    13   6     0.10   0.21  -0.06     0.07  -0.05  -0.08    -0.14   0.03  -0.14
    14   6     0.10   0.21  -0.06     0.07  -0.05  -0.08     0.14  -0.03   0.14
    15   1    -0.22  -0.16  -0.09     0.05  -0.04  -0.06    -0.12  -0.11  -0.04
    16   1    -0.22  -0.16  -0.09     0.05  -0.04  -0.06     0.12   0.11   0.04
    17   1     0.14   0.11   0.06    -0.12   0.09   0.14     0.19  -0.05   0.19
    18   1     0.14   0.11   0.06    -0.12   0.09   0.14    -0.19   0.05  -0.19
    19   1    -0.04   0.14  -0.12    -0.12   0.09   0.14    -0.20   0.02  -0.18
    20   1    -0.04   0.14  -0.12    -0.12   0.09   0.14     0.20  -0.02   0.18
    21   1     0.06  -0.21   0.18     0.05  -0.04  -0.06     0.02  -0.13   0.10
    22   1     0.06  -0.21   0.18     0.05  -0.04  -0.06    -0.02   0.13  -0.10
    23   1     0.09   0.23  -0.05    -0.36   0.27   0.43    -0.22   0.04  -0.21
    24   1     0.09   0.23  -0.05    -0.36   0.27   0.43     0.22  -0.04   0.21
                     28                     29                     30
                     AG                     AG                     AU
 Frequencies --    942.1758               982.5932               989.6790
 Red. masses --      1.6173                 1.3866                 1.4419
 Frc consts  --      0.8459                 0.7888                 0.8321
 IR Inten    --      0.0000                 0.0000                 6.7468
  Atom  AN      X      Y      Z        X      Y      Z        X      Y      Z
     1   6    -0.04   0.03   0.04    -0.01   0.01   0.01    -0.02   0.01   0.02
     2   6     0.04  -0.03  -0.04     0.01  -0.01  -0.01    -0.02   0.01   0.02
     3   6     0.03  -0.02  -0.04     0.04  -0.03  -0.05     0.04  -0.03  -0.05
     4   6    -0.03   0.02   0.04    -0.04   0.03   0.05     0.04  -0.03  -0.05
     5   6     0.01  -0.01  -0.02    -0.03   0.02   0.04    -0.03   0.02   0.03
     6   6    -0.01   0.01   0.02     0.03  -0.02  -0.04    -0.03   0.02   0.03
     7   6    -0.01   0.01   0.02    -0.03   0.02   0.04    -0.03   0.02   0.03
     8   6     0.01  -0.01  -0.02     0.03  -0.02  -0.04    -0.03   0.02   0.03
     9   6    -0.03   0.02   0.04     0.04  -0.03  -0.05     0.04  -0.03  -0.05
    10   6     0.03  -0.02  -0.04    -0.04   0.03   0.05     0.04  -0.03  -0.05
    11   6     0.04  -0.03  -0.04    -0.01   0.01   0.01    -0.02   0.01   0.02
    12   6    -0.04   0.03   0.04     0.01  -0.01  -0.01    -0.02   0.01   0.02
    13   6     0.07  -0.05  -0.08    -0.00  -0.00  -0.00     0.03  -0.02  -0.03
    14   6    -0.07   0.05   0.08     0.00   0.00   0.00     0.03  -0.02  -0.03
    15   1    -0.14   0.11   0.17    -0.22   0.17   0.27    -0.22   0.16   0.26
    16   1     0.14  -0.11  -0.17     0.22  -0.17  -0.27    -0.22   0.16   0.26
    17   1    -0.10   0.08   0.12     0.18  -0.13  -0.21     0.16  -0.12  -0.19
    18   1     0.10  -0.08  -0.12    -0.18   0.13   0.21     0.16  -0.12  -0.19
    19   1     0.10  -0.08  -0.12     0.18  -0.13  -0.21     0.16  -0.12  -0.19
    20   1    -0.10   0.08   0.12    -0.18   0.13   0.21     0.16  -0.12  -0.19
    21   1     0.14  -0.11  -0.17    -0.22   0.17   0.27    -0.22   0.16   0.26
    22   1    -0.14   0.11   0.17     0.22  -0.17  -0.27    -0.22   0.16   0.26
    23   1    -0.31   0.23   0.37    -0.00   0.00   0.00    -0.12   0.09   0.14
    24   1     0.31  -0.23  -0.37     0.00  -0.00  -0.00    -0.12   0.09   0.14
                     31                     32                     33
                     AU                     AG                     AG
 Frequencies --   1021.5763              1023.3269              1056.0514
 Red. masses --      1.3936                 1.3930                 2.4215
 Frc consts  --      0.8569                 0.8595                 1.5912
 IR Inten    --      0.0000                 0.0000                 0.0000
  Atom  AN      X      Y      Z        X      Y      Z        X      Y      Z
     1   6    -0.00   0.00   0.00     0.00  -0.00  -0.00     0.03   0.01   0.02
     2   6    -0.00   0.00   0.00    -0.00   0.00   0.00    -0.03  -0.01  -0.02
     3   6    -0.02   0.02   0.03    -0.02   0.02   0.03     0.02  -0.07   0.06
     4   6    -0.02   0.02   0.03     0.02  -0.02  -0.03    -0.02   0.07  -0.06
     5   6     0.05  -0.04  -0.06     0.05  -0.04  -0.06    -0.11  -0.09  -0.04
     6   6     0.05  -0.04  -0.06    -0.05   0.04   0.06     0.11   0.09   0.04
     7   6    -0.05   0.04   0.06    -0.05   0.04   0.06    -0.03   0.11  -0.09
     8   6    -0.05   0.04   0.06     0.05  -0.04  -0.06     0.03  -0.11   0.09
     9   6     0.02  -0.02  -0.03     0.02  -0.02  -0.03     0.07   0.06   0.03
    10   6     0.02  -0.02  -0.03    -0.02   0.02   0.03    -0.07  -0.06  -0.03
    11   6     0.00  -0.00  -0.00    -0.00   0.00   0.00     0.02  -0.02   0.02
    12   6     0.00  -0.00  -0.00     0.00  -0.00  -0.00    -0.02   0.02  -0.02
    13   6     0.00  -0.00   0.00    -0.01   0.01   0.01     0.00   0.00  -0.00
    14   6     0.00  -0.00   0.00     0.01  -0.01  -0.01    -0.00  -0.00   0.00
    15   1     0.12  -0.09  -0.14     0.12  -0.09  -0.15     0.24  -0.12   0.28
    16   1     0.12  -0.09  -0.14    -0.12   0.09   0.15    -0.24   0.12  -0.28
    17   1    -0.26   0.19   0.31    -0.26   0.19   0.31    -0.12  -0.23   0.04
    18   1    -0.26   0.19   0.31     0.26  -0.19  -0.31     0.12   0.23  -0.04
    19   1     0.26  -0.19  -0.31     0.26  -0.19  -0.31     0.08   0.23  -0.08
    20   1     0.26  -0.19  -0.31    -0.26   0.19   0.31    -0.08  -0.23   0.08
    21   1    -0.12   0.09   0.14    -0.12   0.09   0.14     0.30   0.02   0.24
    22   1    -0.12   0.09   0.14     0.12  -0.09  -0.14    -0.30  -0.02  -0.24
    23   1     0.00  -0.00  -0.00     0.04  -0.03  -0.04     0.00   0.00  -0.00
    24   1     0.00  -0.00  -0.00    -0.04   0.03   0.04    -0.00  -0.00   0.00
                     34                     35                     36
                     AU                     AG                     AU
 Frequencies --   1056.0996              1125.4468              1163.3645
 Red. masses --      2.2278                 1.9899                 1.4896
 Frc consts  --      1.4640                 1.4850                 1.1879
 IR Inten    --      3.7780                 0.0000                 0.0076
  Atom  AN      X      Y      Z        X      Y      Z        X      Y      Z
     1   6     0.02   0.03   0.00    -0.05  -0.05  -0.01     0.03   0.03   0.00
     2   6     0.02   0.03   0.00     0.05   0.05   0.01     0.03   0.03   0.00
     3   6     0.02  -0.07   0.06     0.02   0.10  -0.05     0.01  -0.06   0.05
     4   6     0.02  -0.07   0.06    -0.02  -0.10   0.05     0.01  -0.06   0.05
     5   6    -0.10  -0.08  -0.03     0.01  -0.04   0.03    -0.01   0.03  -0.03
     6   6    -0.10  -0.08  -0.03    -0.01   0.04  -0.03    -0.01   0.03  -0.03
     7   6    -0.02   0.10  -0.08    -0.04  -0.03  -0.01     0.03   0.02   0.01
     8   6    -0.02   0.10  -0.08     0.04   0.03   0.01     0.03   0.02   0.01
     9   6     0.07   0.05   0.02     0.06   0.09  -0.01    -0.06  -0.05  -0.02
    10   6     0.07   0.05   0.02    -0.06  -0.09   0.01    -0.06  -0.05  -0.02
    11   6    -0.00  -0.03   0.02    -0.00  -0.06   0.04     0.00   0.03  -0.02
    12   6    -0.00  -0.03   0.02     0.00   0.06  -0.04     0.00   0.03  -0.02
    13   6    -0.01   0.00  -0.01    -0.03   0.01  -0.03    -0.02  -0.05   0.01
    14   6    -0.01   0.00  -0.01     0.03  -0.01   0.03    -0.02  -0.05   0.01
    15   1     0.25  -0.12   0.28    -0.09   0.13  -0.16     0.20  -0.10   0.23
    16   1     0.25  -0.12   0.28     0.09  -0.13   0.16     0.20  -0.10   0.23
    17   1    -0.11  -0.21   0.04     0.02  -0.34   0.23    -0.02   0.30  -0.21
    18   1    -0.11  -0.21   0.04    -0.02   0.34  -0.23    -0.02   0.30  -0.21
    19   1     0.08   0.22  -0.07    -0.29  -0.29  -0.06     0.26   0.25   0.06
    20   1     0.08   0.22  -0.07     0.29   0.29   0.06     0.26   0.25   0.06
    21   1     0.31   0.02   0.25     0.18   0.08   0.10    -0.25  -0.02  -0.20
    22   1     0.31   0.02   0.25    -0.18  -0.08  -0.10    -0.25  -0.02  -0.20
    23   1    -0.10   0.02  -0.10     0.07  -0.01   0.07    -0.02  -0.05   0.01
    24   1    -0.10   0.02  -0.10    -0.07   0.01  -0.07    -0.02  -0.05   0.01
                     37                     38                     39
                     AU                     AG                     AG
 Frequencies --   1194.7423              1210.3397              1217.2327
 Red. masses --      1.1801                 1.0889                 1.3796
 Frc consts  --      0.9925                 0.9399                 1.2044
 IR Inten    --      0.0009                 0.0000                 0.0000
  Atom  AN      X      Y      Z        X      Y      Z        X      Y      Z
     1   6    -0.01   0.02  -0.02     0.01   0.01   0.00    -0.07  -0.01  -0.05
     2   6    -0.01   0.02  -0.02    -0.01  -0.01  -0.00     0.07   0.01   0.05
     3   6     0.02  -0.01   0.02     0.01  -0.01   0.01     0.03   0.01   0.02
     4   6     0.02  -0.01   0.02    -0.01   0.01  -0.01    -0.03  -0.01  -0.02
     5   6     0.00   0.04  -0.03    -0.00   0.03  -0.02     0.01   0.01  -0.00
     6   6     0.00   0.04  -0.03     0.00  -0.03   0.02    -0.01  -0.01   0.00
     7   6    -0.03  -0.04  -0.00    -0.03  -0.03  -0.01     0.01   0.01  -0.00
     8   6    -0.03  -0.04  -0.00     0.03   0.03   0.01    -0.01  -0.01   0.00
     9   6     0.02   0.00   0.02     0.01   0.00   0.01    -0.01   0.02  -0.02
    10   6     0.02   0.00   0.02    -0.01  -0.00  -0.01     0.01  -0.02   0.02
    11   6    -0.02  -0.01  -0.01     0.00  -0.01   0.01     0.05  -0.03   0.06
    12   6    -0.02  -0.01  -0.01    -0.00   0.01  -0.01    -0.05   0.03  -0.06
    13   6     0.01  -0.00   0.01    -0.00  -0.00   0.00    -0.01   0.00  -0.01
    14   6     0.01  -0.00   0.01     0.00   0.00  -0.00     0.01  -0.00   0.01
    15   1     0.18  -0.04   0.18     0.17  -0.04   0.16     0.28  -0.03   0.25
    16   1     0.18  -0.04   0.18    -0.17   0.04  -0.16    -0.28   0.03  -0.25
    17   1    -0.01   0.35  -0.23    -0.01   0.37  -0.24     0.01   0.03  -0.01
    18   1    -0.01   0.35  -0.23     0.01  -0.37   0.24    -0.01  -0.03   0.01
    19   1    -0.29  -0.30  -0.05    -0.30  -0.31  -0.06     0.02   0.03  -0.00
    20   1    -0.29  -0.30  -0.05     0.30   0.31   0.06    -0.02  -0.03   0.00
    21   1     0.19  -0.03   0.18     0.17  -0.02   0.16    -0.26   0.07  -0.26
    22   1     0.19  -0.03   0.18    -0.17   0.02  -0.16     0.26  -0.07   0.26
    23   1     0.08  -0.01   0.07    -0.00  -0.00   0.00     0.32  -0.06   0.31
    24   1     0.08  -0.01   0.07     0.00   0.00  -0.00    -0.32   0.06  -0.31
                     40                     41                     42
                     AU                     AG                     AG
 Frequencies --   1218.9509              1291.7682              1312.5416
 Red. masses --      1.4531                 2.7173                 1.6272
 Frc consts  --      1.2721                 2.6715                 1.6517
 IR Inten    --    166.1717                 0.0000                 0.0000
  Atom  AN      X      Y      Z        X      Y      Z        X      Y      Z
     1   6    -0.07  -0.01  -0.05     0.12  -0.03   0.12     0.02   0.09  -0.04
     2   6    -0.07  -0.01  -0.05    -0.12   0.03  -0.12    -0.02  -0.09   0.04
     3   6     0.03   0.03   0.01    -0.01  -0.05   0.02    -0.03  -0.03  -0.01
     4   6     0.03   0.03   0.01     0.01   0.05  -0.02     0.03   0.03   0.01
     5   6     0.01  -0.00   0.01    -0.03   0.00  -0.03     0.01  -0.01   0.01
     6   6     0.01  -0.00   0.01     0.03  -0.00   0.03    -0.01   0.01  -0.01
     7   6     0.01  -0.00   0.01    -0.03   0.01  -0.03    -0.02  -0.00  -0.01
     8   6     0.01  -0.00   0.01     0.03  -0.01   0.03     0.02   0.00   0.01
     9   6     0.00  -0.03   0.02     0.03   0.05  -0.00     0.01  -0.03   0.03
    10   6     0.00  -0.03   0.02    -0.03  -0.05   0.00    -0.01   0.03  -0.03
    11   6    -0.05   0.03  -0.07     0.12  -0.02   0.11     0.06   0.09  -0.01
    12   6    -0.05   0.03  -0.07    -0.12   0.02  -0.11    -0.06  -0.09   0.01
    13   6     0.01  -0.00   0.01     0.04   0.09  -0.02     0.03  -0.01   0.03
    14   6     0.01  -0.00   0.01    -0.04  -0.09   0.02    -0.03   0.01  -0.03
    15   1     0.12   0.01   0.09    -0.32  -0.00  -0.27    -0.20   0.00  -0.17
    16   1     0.12   0.01   0.09     0.32   0.00   0.27     0.20  -0.00   0.17
    17   1     0.02  -0.17   0.12    -0.04   0.11  -0.11     0.01  -0.06   0.05
    18   1     0.02  -0.17   0.12     0.04  -0.11   0.11    -0.01   0.06  -0.05
    19   1     0.15   0.14   0.04    -0.13  -0.08  -0.05    -0.06  -0.04  -0.02
    20   1     0.15   0.14   0.04     0.13   0.08   0.05     0.06   0.04   0.02
    21   1     0.09  -0.05   0.11    -0.28   0.11  -0.30     0.17  -0.06   0.19
    22   1     0.09  -0.05   0.11     0.28  -0.11   0.30    -0.17   0.06  -0.19
    23   1     0.42  -0.08   0.40     0.05   0.11  -0.03     0.41  -0.07   0.39
    24   1     0.42  -0.08   0.40    -0.05  -0.11   0.03    -0.41   0.07  -0.39
                     43                     44                     45
                     AU                     AU                     AU
 Frequencies --   1315.6413              1326.1864              1382.1040
 Red. masses --      2.3754                 2.7410                 7.7102
 Frc consts  --      2.4225                 2.8404                 8.6776
 IR Inten    --     19.2249                 6.7392               312.3031
  Atom  AN      X      Y      Z        X      Y      Z        X      Y      Z
     1   6     0.07   0.12  -0.02    -0.09   0.07  -0.12    -0.09  -0.21   0.05
     2   6     0.07   0.12  -0.02    -0.09   0.07  -0.12    -0.09  -0.21   0.05
     3   6    -0.04  -0.05   0.00    -0.05  -0.01  -0.04     0.15  -0.05   0.16
     4   6    -0.04  -0.05   0.00    -0.05  -0.01  -0.04     0.15  -0.05   0.16
     5   6     0.01  -0.02   0.02     0.05   0.02   0.02    -0.03   0.16  -0.12
     6   6     0.01  -0.02   0.02     0.05   0.02   0.02    -0.03   0.16  -0.12
     7   6    -0.02  -0.01  -0.01    -0.02   0.04  -0.04    -0.15  -0.13  -0.05
     8   6    -0.02  -0.01  -0.01    -0.02   0.04  -0.04    -0.15  -0.13  -0.05
     9   6    -0.01  -0.05   0.03     0.04  -0.02   0.05     0.17  -0.01   0.14
    10   6    -0.01  -0.05   0.03     0.04  -0.02   0.05     0.17  -0.01   0.14
    11   6     0.04   0.13  -0.05     0.13   0.03   0.09     0.09   0.21  -0.06
    12   6     0.04   0.13  -0.05     0.13   0.03   0.09     0.09   0.21  -0.06
    13   6    -0.05  -0.11   0.03    -0.04  -0.08   0.02    -0.10   0.02  -0.09
    14   6    -0.05  -0.11   0.03    -0.04  -0.08   0.02    -0.10   0.02  -0.09
    15   1    -0.35   0.01  -0.30     0.24  -0.06   0.24    -0.16  -0.00  -0.13
    16   1    -0.35   0.01  -0.30     0.24  -0.06   0.24    -0.16  -0.00  -0.13
    17   1     0.01   0.04  -0.02     0.06  -0.22   0.18    -0.02  -0.12   0.06
    18   1     0.01   0.04  -0.02     0.06  -0.22   0.18    -0.02  -0.12   0.06
    19   1     0.03   0.04  -0.00    -0.22  -0.17  -0.08     0.08   0.11  -0.00
    20   1     0.03   0.04  -0.00    -0.22  -0.17  -0.08     0.08   0.11  -0.00
    21   1     0.30  -0.11   0.32    -0.26   0.03  -0.23    -0.13   0.05  -0.15
    22   1     0.30  -0.11   0.32    -0.26   0.03  -0.23    -0.13   0.05  -0.15
    23   1    -0.05  -0.11   0.03    -0.04  -0.10   0.03    -0.19   0.03  -0.18
    24   1    -0.05  -0.11   0.03    -0.04  -0.10   0.03    -0.19   0.03  -0.18
                     46                     47                     48
                     AG                     AG                     AU
 Frequencies --   1416.3682              1437.8663              1440.5712
 Red. masses --     10.2220                 1.5804                 4.5468
 Frc consts  --     12.0820                 1.9251                 5.5594
 IR Inten    --      0.0000                 0.0000               140.1719
  Atom  AN      X      Y      Z        X      Y      Z        X      Y      Z
     1   6    -0.18  -0.24   0.00    -0.02  -0.02   0.00    -0.04   0.14  -0.12
     2   6     0.18   0.24  -0.00     0.02   0.02  -0.00    -0.04   0.14  -0.12
     3   6     0.17  -0.03   0.16     0.06   0.03   0.04     0.04  -0.05   0.06
     4   6    -0.17   0.03  -0.16    -0.06  -0.03  -0.04     0.04  -0.05   0.06
     5   6    -0.01   0.20  -0.14    -0.00  -0.05   0.03     0.00   0.08  -0.05
     6   6     0.01  -0.20   0.14     0.00   0.05  -0.03     0.00   0.08  -0.05
     7   6    -0.18  -0.17  -0.04    -0.04  -0.05  -0.01    -0.06  -0.07  -0.01
     8   6     0.18   0.17   0.04     0.04   0.05   0.01    -0.06  -0.07  -0.01
     9   6     0.17  -0.03   0.16    -0.03   0.04  -0.05     0.07   0.03   0.04
    10   6    -0.17   0.03  -0.16     0.03  -0.04   0.05     0.07   0.03   0.04
    11   6     0.04   0.26  -0.13    -0.00  -0.02   0.01    -0.14  -0.11  -0.05
    12   6    -0.04  -0.26   0.13     0.00   0.02  -0.01    -0.14  -0.11  -0.05
    13   6     0.04   0.10  -0.03    -0.05   0.01  -0.05     0.17  -0.03   0.16
    14   6    -0.04  -0.10   0.03     0.05  -0.01   0.05     0.17  -0.03   0.16
    15   1    -0.04   0.00  -0.04    -0.16   0.07  -0.18    -0.21  -0.01  -0.16
    16   1     0.04  -0.00   0.04     0.16  -0.07   0.18    -0.21  -0.01  -0.16
    17   1    -0.01  -0.15   0.09    -0.01   0.34  -0.22     0.01  -0.15   0.10
    18   1     0.01   0.15  -0.09     0.01  -0.34   0.22     0.01  -0.15   0.10
    19   1     0.12   0.13   0.01     0.28   0.29   0.05     0.13   0.13   0.03
    20   1    -0.12  -0.13  -0.01    -0.28  -0.29  -0.05     0.13   0.13   0.03
    21   1    -0.04   0.01  -0.04     0.19   0.01   0.15    -0.17   0.08  -0.19
    22   1     0.04  -0.01   0.04    -0.19  -0.01  -0.15    -0.17   0.08  -0.19
    23   1     0.04   0.10  -0.03     0.11  -0.02   0.11    -0.26   0.05  -0.25
    24   1    -0.04  -0.10   0.03    -0.11   0.02  -0.11    -0.26   0.05  -0.25
                     49                     50                     51
                     AU                     AU                     AG
 Frequencies --   1493.6840              1496.6659              1544.4646
 Red. masses --      2.2685                 1.7836                 2.6340
 Frc consts  --      2.9820                 2.3539                 3.7019
 IR Inten    --     22.2752                61.6136                 0.0000
  Atom  AN      X      Y      Z        X      Y      Z        X      Y      Z
     1   6    -0.08  -0.01  -0.07     0.04   0.06  -0.01    -0.04   0.07  -0.08
     2   6    -0.08  -0.01  -0.07     0.04   0.06  -0.01     0.04  -0.07   0.08
     3   6     0.04   0.05   0.00     0.05  -0.02   0.05     0.10   0.00   0.08
     4   6     0.04   0.05   0.00     0.05  -0.02   0.05    -0.10  -0.00  -0.08
     5   6     0.03  -0.08   0.08    -0.03  -0.04  -0.00    -0.05  -0.07   0.01
     6   6     0.03  -0.08   0.08    -0.03  -0.04  -0.00     0.05   0.07  -0.01
     7   6    -0.09  -0.06  -0.04     0.00   0.05  -0.03     0.02   0.08  -0.03
     8   6    -0.09  -0.06  -0.04     0.00   0.05  -0.03    -0.02  -0.08   0.03
     9   6     0.01   0.06  -0.03     0.06   0.00   0.05     0.08  -0.03   0.09
    10   6     0.01   0.06  -0.03     0.06   0.00   0.05    -0.08   0.03  -0.09
    11   6     0.07  -0.04   0.08    -0.02  -0.07   0.03    -0.09  -0.04  -0.05
    12   6     0.07  -0.04   0.08    -0.02  -0.07   0.03     0.09   0.04   0.05
    13   6    -0.00  -0.00  -0.00    -0.06   0.01  -0.06    -0.02  -0.05   0.01
    14   6    -0.00  -0.00  -0.00    -0.06   0.01  -0.06     0.02   0.05  -0.01
    15   1    -0.05   0.08  -0.10    -0.25   0.04  -0.23    -0.27   0.07  -0.27
    16   1    -0.05   0.08  -0.10    -0.25   0.04  -0.23     0.27  -0.07   0.27
    17   1     0.03   0.39  -0.22    -0.05   0.11  -0.11    -0.07   0.17  -0.16
    18   1     0.03   0.39  -0.22    -0.05   0.11  -0.11     0.07  -0.17   0.16
    19   1     0.29   0.34   0.03    -0.13  -0.08  -0.06    -0.19  -0.12  -0.08
    20   1     0.29   0.34   0.03    -0.13  -0.08  -0.06     0.19   0.12   0.08
    21   1     0.11   0.05   0.06    -0.25   0.05  -0.24    -0.29   0.03  -0.26
    22   1     0.11   0.05   0.06    -0.25   0.05  -0.24     0.29  -0.03   0.26
    23   1    -0.00  -0.00   0.00     0.30  -0.05   0.28    -0.03  -0.06   0.02
    24   1    -0.00  -0.00   0.00     0.30  -0.05   0.28     0.03   0.06  -0.02
                     52                     53                     54
                     AG                     AU                     AG
 Frequencies --   1563.2440              1579.7895              1582.9228
 Red. masses --      4.2628                 3.7988                 3.8849
 Frc consts  --      6.1377                 5.5859                 5.7352
 IR Inten    --      0.0000                82.5090                 0.0000
  Atom  AN      X      Y      Z        X      Y      Z        X      Y      Z
     1   6    -0.14   0.03  -0.14     0.11   0.08   0.04     0.01  -0.02   0.02
     2   6     0.14  -0.03   0.14     0.11   0.08   0.04    -0.01   0.02  -0.02
     3   6     0.07  -0.01   0.06    -0.07  -0.07  -0.02     0.10  -0.06   0.12
     4   6    -0.07   0.01  -0.06    -0.07  -0.07  -0.02    -0.10   0.06  -0.12
     5   6    -0.02   0.00  -0.02     0.05   0.15  -0.06    -0.08   0.09  -0.12
     6   6     0.02  -0.00   0.02     0.05   0.15  -0.06     0.08  -0.09   0.12
     7   6     0.02  -0.01   0.02    -0.08  -0.15   0.02     0.14   0.05   0.09
     8   6    -0.02   0.01  -0.02    -0.08  -0.15   0.02    -0.14  -0.05  -0.09
     9   6    -0.06   0.02  -0.06    -0.01   0.08  -0.06    -0.13  -0.02  -0.10
    10   6     0.06  -0.02   0.06    -0.01   0.08  -0.06     0.13   0.02   0.10
    11   6     0.15  -0.02   0.13     0.03  -0.10   0.09    -0.02  -0.01  -0.01
    12   6    -0.15   0.02  -0.13     0.03  -0.10   0.09     0.02   0.01   0.01
    13   6     0.16  -0.03   0.15    -0.08   0.01  -0.08    -0.09   0.02  -0.09
    14   6    -0.16   0.03  -0.15    -0.08   0.01  -0.08     0.09  -0.02   0.09
    15   1    -0.16   0.04  -0.16     0.08  -0.10   0.13    -0.19  -0.01  -0.15
    16   1     0.16  -0.04   0.16     0.08  -0.10   0.13     0.19   0.01   0.15
    17   1    -0.03  -0.01  -0.01     0.06  -0.23   0.20    -0.09  -0.30   0.11
    18   1     0.03   0.01   0.01     0.06  -0.23   0.20     0.09   0.30  -0.11
    19   1     0.01  -0.02   0.02     0.24   0.18   0.09    -0.16  -0.28   0.04
    20   1    -0.01   0.02  -0.02     0.24   0.18   0.09     0.16   0.28  -0.04
    21   1     0.17  -0.02   0.15     0.15   0.06   0.08     0.15  -0.07   0.17
    22   1    -0.17   0.02  -0.15     0.15   0.06   0.08    -0.15   0.07  -0.17
    23   1    -0.36   0.06  -0.34     0.24  -0.04   0.23     0.14  -0.03   0.14
    24   1     0.36  -0.06   0.34     0.24  -0.04   0.23    -0.14   0.03  -0.14
                     55                     56                     57
                     AG                     AU                     AU
 Frequencies --   1605.4809              1624.8636              3183.4974
 Red. masses --      6.6486                 5.1247                 1.0907
 Frc consts  --     10.0970                 7.9718                 6.5128
 IR Inten    --      0.0000                57.8671                 0.7172
  Atom  AN      X      Y      Z        X      Y      Z        X      Y      Z
     1   6     0.08   0.21  -0.06     0.12  -0.00   0.10    -0.00   0.00  -0.00
     2   6    -0.08  -0.21   0.06     0.12  -0.00   0.10    -0.00   0.00  -0.00
     3   6    -0.01  -0.11   0.06    -0.15   0.04  -0.15     0.00   0.01  -0.00
     4   6     0.01   0.11  -0.06    -0.15   0.04  -0.15     0.00   0.01  -0.00
     5   6     0.03   0.20  -0.10     0.08  -0.07   0.11    -0.00  -0.00  -0.00
     6   6    -0.03  -0.20   0.10     0.08  -0.07   0.11    -0.00  -0.00  -0.00
     7   6    -0.14  -0.19   0.00    -0.12  -0.03  -0.08     0.00  -0.00   0.00
     8   6     0.14   0.19  -0.00    -0.12  -0.03  -0.08     0.00  -0.00   0.00
     9   6     0.08   0.10   0.00     0.16  -0.01   0.14     0.00   0.01  -0.00
    10   6    -0.08  -0.10  -0.00     0.16  -0.01   0.14     0.00   0.01  -0.00
    11   6    -0.10  -0.21   0.05    -0.10   0.03  -0.11     0.00   0.00   0.00
    12   6     0.10   0.21  -0.05    -0.10   0.03  -0.11     0.00   0.00   0.00
    13   6    -0.04  -0.09   0.02     0.00   0.01  -0.00    -0.02  -0.05   0.01
    14   6     0.04   0.09  -0.02     0.00   0.01  -0.00    -0.02  -0.05   0.01
    15   1    -0.10  -0.10  -0.02     0.25  -0.03   0.22    -0.04  -0.10   0.03
    16   1     0.10   0.10   0.02     0.25  -0.03   0.22    -0.04  -0.10   0.03
    17   1     0.05  -0.24   0.19     0.08   0.19  -0.05     0.03   0.01   0.02
    18   1    -0.05   0.24  -0.19     0.08   0.19  -0.05     0.03   0.01   0.02
    19   1     0.23   0.19   0.08     0.08   0.19  -0.05    -0.02   0.02  -0.03
    20   1    -0.23  -0.19  -0.08     0.08   0.19  -0.05    -0.02   0.02  -0.03
    21   1     0.00   0.12  -0.08    -0.23   0.06  -0.23    -0.04  -0.10   0.03
    22   1    -0.00  -0.12   0.08    -0.23   0.06  -0.23    -0.04  -0.10   0.03
    23   1    -0.04  -0.09   0.02     0.00   0.01  -0.00     0.26   0.61  -0.16
    24   1     0.04   0.09  -0.02     0.00   0.01  -0.00     0.26   0.61  -0.16
                     58                     59                     60
                     AG                     AG                     AU
 Frequencies --   3185.3884              3190.8593              3191.2771
 Red. masses --      1.0915                 1.0893                 1.0895
 Frc consts  --      6.5256                 6.5343                 6.5372
 IR Inten    --      0.0000                 0.0000                 1.1148
  Atom  AN      X      Y      Z        X      Y      Z        X      Y      Z
     1   6    -0.00   0.00  -0.00     0.00   0.00   0.00     0.00   0.00   0.00
     2   6     0.00  -0.00   0.00    -0.00  -0.00  -0.00     0.00   0.00   0.00
     3   6     0.00   0.01  -0.00    -0.01  -0.03   0.01    -0.01  -0.03   0.01
     4   6    -0.00  -0.01   0.00     0.01   0.03  -0.01    -0.01  -0.03   0.01
     5   6    -0.00  -0.00  -0.00     0.02   0.01   0.01     0.02   0.01   0.01
     6   6     0.00   0.00   0.00    -0.02  -0.01  -0.01     0.02   0.01   0.01
     7   6    -0.00   0.00  -0.00    -0.01   0.01  -0.02    -0.01   0.01  -0.02
     8   6     0.00  -0.00   0.00     0.01  -0.01   0.02    -0.01   0.01  -0.02
     9   6    -0.00  -0.01   0.00    -0.01  -0.03   0.01    -0.01  -0.03   0.01
    10   6     0.00   0.01  -0.00     0.01   0.03  -0.01    -0.01  -0.03   0.01
    11   6    -0.00   0.00  -0.00    -0.00   0.00  -0.00    -0.00   0.00  -0.00
    12   6     0.00  -0.00   0.00     0.00  -0.00   0.00    -0.00   0.00  -0.00
    13   6    -0.02  -0.05   0.01     0.00   0.00  -0.00    -0.01  -0.01   0.00
    14   6     0.02   0.05  -0.01    -0.00  -0.00   0.00    -0.01  -0.01   0.00
    15   1    -0.04  -0.10   0.03     0.17   0.38  -0.10     0.16   0.36  -0.09
    16   1     0.04   0.10  -0.03    -0.17  -0.38   0.10     0.16   0.36  -0.09
    17   1     0.02   0.01   0.01    -0.21  -0.09  -0.12    -0.22  -0.09  -0.12
    18   1    -0.02  -0.01  -0.01     0.21   0.09   0.12    -0.22  -0.09  -0.12
    19   1     0.01  -0.01   0.02     0.11  -0.14   0.18     0.11  -0.15   0.19
    20   1    -0.01   0.01  -0.02    -0.11   0.14  -0.18     0.11  -0.15   0.19
    21   1     0.04   0.10  -0.02     0.16   0.38  -0.10     0.15   0.36  -0.10
    22   1    -0.04  -0.10   0.02    -0.16  -0.38   0.10     0.15   0.36  -0.10
    23   1     0.26   0.61  -0.16    -0.00   0.00  -0.00     0.06   0.15  -0.04
    24   1    -0.26  -0.61   0.16     0.00  -0.00   0.00     0.06   0.15  -0.04
                     61                     62                     63
                     AU                     AG                     AG
 Frequencies --   3193.7979              3194.5463              3205.5167
 Red. masses --      1.0904                 1.0905                 1.0931
 Frc consts  --      6.5532                 6.5571                 6.6178
 IR Inten    --      1.0985                 0.0000                 0.0000
  Atom  AN      X      Y      Z        X      Y      Z        X      Y      Z
     1   6    -0.00  -0.00  -0.00    -0.00  -0.00  -0.00     0.00   0.00   0.00
     2   6    -0.00  -0.00  -0.00     0.00   0.00   0.00    -0.00  -0.00  -0.00
     3   6     0.02   0.04  -0.01     0.02   0.04  -0.01    -0.01  -0.02   0.01
     4   6     0.02   0.04  -0.01    -0.02  -0.04   0.01     0.01   0.02  -0.01
     5   6    -0.01  -0.01  -0.01    -0.01  -0.01  -0.01    -0.03  -0.01  -0.02
     6   6    -0.01  -0.01  -0.01     0.01   0.01   0.01     0.03   0.01   0.02
     7   6    -0.00   0.01  -0.01    -0.00   0.01  -0.01     0.02  -0.02   0.03
[...]
    60814.5318    0.246617D+03
    60822.5318    0.253515D+03
    60830.5318    0.260533D+03
    60838.5318    0.267658D+03
    60846.5318    0.274884D+03
    60854.5318    0.282196D+03
    60862.5318    0.289600D+03
    60870.5318    0.297062D+03
    60878.5318    0.304579D+03
    60886.5318    0.312141D+03
    60894.5318    0.319735D+03
    60902.5318    0.327348D+03
    60910.5318    0.334969D+03
    60918.5318    0.342582D+03
    60926.5318    0.350198D+03
    60934.5318    0.357765D+03
    60942.5318    0.365284D+03
    60950.5318    0.372743D+03
    60958.5318    0.380126D+03
    60966.5318    0.387420D+03
    60974.5318    0.394612D+03
    60982.5318    0.401685D+03
    60990.5318    0.408630D+03
    60998.5318    0.415429D+03
    61006.5318    0.422072D+03
    61014.5318    0.428544D+03
    61022.5318    0.434833D+03
    61030.5318    0.440929D+03
    61038.5318    0.446815D+03
    61046.5318    0.452482D+03
    61054.5318    0.457923D+03
    61062.5318    0.463116D+03
    61070.5318    0.468051D+03
    61078.5318    0.472715D+03
    61086.5318    0.477092D+03
    61094.5318    0.481173D+03
    61102.5318    0.484941D+03
    61110.5318    0.488381D+03
    61118.5318    0.491490D+03
    61126.5318    0.494236D+03
    61134.5318    0.496615D+03
    61142.5318    0.498612D+03
    61150.5318    0.500220D+03
    61158.5318    0.501427D+03
    61166.5318    0.502222D+03
    61174.5318    0.502610D+03
    61182.5318    0.502581D+03
    61190.5318    0.502137D+03
    61198.5318    0.501279D+03
    61206.5318    0.500013D+03
    61214.5318    0.498346D+03
    61222.5318    0.496289D+03
    61230.5318    0.493852D+03
    61238.5318    0.491050D+03
    61246.5318    0.487896D+03
    61254.5318    0.484406D+03
    61262.5318    0.480596D+03
    61270.5318    0.476480D+03
    61278.5318    0.472071D+03
    61286.5318    0.467387D+03
    61294.5318    0.462429D+03
    61302.5318    0.457224D+03
    61310.5318    0.451774D+03
    61318.5318    0.446085D+03
    61326.5318    0.440161D+03
    61334.5318    0.434012D+03
    61342.5318    0.427639D+03
    61350.5318    0.421047D+03
    61358.5318    0.414235D+03
    61366.5318    0.407214D+03
    61374.5318    0.399972D+03
    61382.5318    0.392539D+03
    61390.5318    0.384909D+03
    61398.5318    0.377089D+03
    61406.5318    0.369089D+03
    61414.5318    0.360921D+03
    61422.5318    0.352594D+03
    61430.5318    0.344132D+03
    61438.5318    0.335546D+03
    61446.5318    0.326855D+03
    61454.5318    0.318075D+03
    61462.5318    0.309228D+03
    61470.5318    0.300331D+03
    61478.5318    0.291403D+03
    61486.5318    0.282454D+03
    61494.5318    0.273519D+03
    61502.5318    0.264588D+03
    61510.5318    0.255711D+03
    61518.5318    0.246880D+03
    61526.5318    0.238108D+03
    61534.5318    0.229405D+03
    61542.5318    0.220780D+03
    61550.5318    0.212243D+03
    61558.5318    0.203801D+03
    61566.5318    0.195451D+03
    61574.5318    0.187222D+03
    61582.5318    0.179107D+03
    61590.5318    0.171115D+03
    61598.5318    0.163252D+03
    61606.5318    0.155527D+03
    61614.5318    0.147947D+03
    61622.5318    0.140525D+03
    61630.5318    0.133260D+03
    61638.5318    0.126187D+03
    61646.5318    0.119302D+03
    61654.5318    0.112620D+03
    61662.5318    0.106151D+03
    61670.5318    0.999013D+02
    61678.5318    0.938943D+02
    61686.5318    0.881077D+02
    61694.5318    0.826104D+02
    61702.5318    0.773779D+02
    61710.5318    0.724151D+02
    61718.5318    0.677276D+02
    61726.5318    0.633183D+02
    61734.5318    0.591873D+02
    61742.5318    0.553368D+02
    61750.5318    0.517590D+02
    61758.5318    0.484530D+02
    61766.5318    0.454164D+02
    61774.5318    0.426361D+02
    61782.5318    0.401025D+02
    61790.5318    0.378042D+02
    61798.5318    0.357313D+02
    61806.5318    0.338700D+02
    61814.5318    0.321915D+02
    61822.5318    0.307176D+02
    61830.5318    0.294133D+02
    61838.5318    0.282671D+02
    61846.5318    0.272642D+02
    61854.5318    0.263922D+02
    61862.5318    0.256393D+02
    61870.5318    0.249942D+02
    61878.5318    0.244244D+02
    61886.5318    0.239664D+02
    61894.5318    0.235864D+02
    61902.5318    0.232741D+02
    61910.5318    0.230221D+02
    61918.5318    0.228233D+02
    61926.5318    0.226730D+02
    61934.5318    0.225651D+02
    61942.5318    0.224926D+02
    61950.5318    0.224577D+02
    61958.5318    0.224523D+02
    61966.5318    0.224749D+02
    61974.5318    0.225214D+02
    61982.5318    0.225894D+02
    61990.5318    0.226792D+02
    61998.5318    0.227878D+02
    62006.5318    0.229089D+02
    62014.5318    0.230528D+02
    62022.5318    0.232125D+02
    62030.5318    0.233890D+02
    62038.5318    0.235788D+02
    62046.5318    0.237834D+02
    62054.5318    0.240020D+02
    62062.5318    0.242359D+02
    62070.5318    0.244767D+02
    62078.5318    0.247425D+02
    62086.5318    0.250227D+02
    62094.5318    0.253187D+02
    62102.5318    0.256294D+02
    62110.5318    0.259564D+02
    62118.5318    0.262994D+02
    62126.5318    0.266586D+02
    62134.5318    0.270352D+02
    62142.5318    0.274281D+02
    62150.5318    0.278387D+02
    62158.5318    0.282652D+02
    62166.5318    0.287075D+02
    62174.5318    0.291658D+02
    62182.5318    0.296392D+02
    62190.5318    0.301268D+02
    62198.5318    0.306285D+02
    62206.5318    0.311429D+02
    62214.5318    0.316697D+02
    62222.5318    0.322073D+02
    62230.5318    0.327544D+02
    62238.5318    0.333102D+02
    62246.5318    0.338737D+02
    62254.5318    0.344436D+02
    62262.5318    0.350194D+02
    62270.5318    0.355995D+02
    62278.5318    0.361843D+02
    62286.5318    0.367710D+02
    62294.5318    0.373594D+02
    62302.5318    0.379488D+02
    62310.5318    0.385385D+02
    62318.5318    0.391273D+02
    62326.5318    0.397152D+02
    62334.5318    0.403005D+02
    62342.5318    0.408847D+02
    62350.5318    0.414640D+02
    62358.5318    0.420386D+02
    62366.5318    0.426080D+02
    62374.5318    0.431712D+02
    62382.5318    0.437272D+02
    62390.5318    0.442753D+02
    62398.5318    0.448141D+02
    62406.5318    0.453434D+02
    62414.5318    0.458612D+02
    62422.5318    0.463669D+02
    62430.5318    0.468594D+02
    62438.5318    0.473376D+02
    62446.5318    0.478008D+02
    62454.5318    0.482476D+02
    62462.5318    0.486775D+02
    62470.5318    0.490902D+02
    62478.5318    0.494836D+02
    62486.5318    0.498574D+02
    62494.5318    0.502109D+02
    62502.5318    0.505433D+02
    62510.5318    0.508541D+02
    62518.5318    0.511428D+02
    62526.5318    0.514085D+02
    62534.5318    0.516523D+02
    62542.5318    0.518712D+02
    62550.5318    0.520660D+02
    62558.5318    0.522361D+02
    62566.5318    0.523814D+02
    62574.5318    0.525016D+02
    62582.5318    0.525956D+02
    62590.5318    0.526646D+02
    62598.5318    0.527077D+02
    62606.5318    0.527247D+02
    62614.5318    0.527155D+02
    62622.5318    0.526803D+02
    62630.5318    0.526189D+02
    62638.5318    0.525315D+02
    62646.5318    0.524180D+02
    62654.5318    0.522788D+02
    62662.5318    0.521144D+02
    62670.5318    0.519243D+02
    62678.5318    0.517093D+02
    62686.5318    0.514692D+02
    62694.5318    0.512037D+02
    62702.5318    0.509139D+02
    62710.5318    0.505992D+02
    62718.5318    0.502609D+02
    62726.5318    0.498984D+02
    62734.5318    0.495124D+02
    62742.5318    0.491024D+02
    62750.5318    0.486698D+02
    62758.5318    0.482147D+02
    62766.5318    0.477377D+02
    62774.5318    0.472390D+02
    62782.5318    0.467207D+02
    62790.5318    0.461823D+02
    62798.5318    0.456269D+02
    62806.5318    0.450549D+02
    62814.5318    0.444679D+02
    62822.5318    0.438675D+02
    62830.5318    0.432558D+02
    62838.5318    0.426345D+02
    62846.5318    0.420066D+02
    62854.5318    0.413739D+02
    62862.5318    0.407391D+02
    62870.5318    0.401043D+02
    62878.5318    0.394723D+02
    62886.5318    0.388456D+02
    62894.5318    0.382265D+02
    62902.5318    0.376167D+02
    62910.5318    0.370200D+02
    62918.5318    0.364368D+02
    62926.5318    0.358712D+02
    62934.5318    0.353235D+02
    62942.5318    0.347959D+02
    62950.5318    0.342894D+02
    62958.5318    0.338051D+02
    62966.5318    0.333437D+02
    62974.5318    0.329063D+02
    62982.5318    0.324916D+02
    62990.5318    0.321020D+02
    62998.5318    0.317357D+02
    63006.5318    0.313917D+02
    63014.5318    0.310690D+02
    63022.5318    0.307658D+02
    63030.5318    0.304797D+02
    63038.5318    0.302091D+02
    63046.5318    0.299502D+02
    63054.5318    0.297013D+02
    63062.5318    0.294579D+02
    63070.5318    0.292166D+02
    63078.5318    0.289731D+02
    63086.5318    0.287226D+02
    63094.5318    0.284621D+02
    63102.5318    0.281855D+02
    63110.5318    0.278911D+02
    63118.5318    0.275738D+02
    63126.5318    0.272292D+02
    63134.5318    0.268542D+02
    63142.5318    0.264456D+02
    63150.5318    0.260005D+02
    63158.5318    0.255178D+02
    63166.5318    0.249951D+02
    63174.5318    0.244332D+02
    63182.5318    0.238323D+02
    63190.5318    0.231927D+02
    63198.5318    0.225162D+02
    63206.5318    0.218052D+02
    63214.5318    0.210627D+02
    63222.5318    0.202927D+02
    63230.5318    0.194980D+02
    63238.5318    0.186861D+02
    63246.5318    0.178602D+02
    63254.5318    0.170258D+02
    63262.5318    0.161881D+02
    63270.5318    0.153526D+02
    63278.5318    0.145242D+02
    63286.5318    0.137089D+02
    63294.5318    0.129092D+02
    63302.5318    0.121334D+02
    63310.5318    0.113836D+02
    63318.5318    0.106632D+02
    63326.5318    0.997516D+01
    63334.5318    0.932205D+01
    63342.5318    0.870585D+01
    63350.5318    0.812808D+01
    63358.5318    0.758887D+01
    63366.5318    0.708988D+01
    63374.5318    0.663017D+01
    63382.5318    0.620930D+01
    63390.5318    0.582618D+01
    63398.5318    0.547947D+01
    63406.5318    0.516795D+01
    63414.5318    0.488963D+01
    63422.5318    0.464180D+01
    63430.5318    0.442411D+01
    63438.5318    0.423351D+01
    63446.5318    0.406801D+01
    63454.5318    0.392519D+01
    63462.5318    0.380317D+01
    63470.5318    0.369987D+01
    63478.5318    0.361353D+01
    63486.5318    0.354118D+01
    63494.5318    0.348364D+01
    63502.5318    0.343789D+01
    63510.5318    0.340263D+01
    63518.5318    0.337651D+01
    63526.5318    0.335846D+01
    63534.5318    0.334754D+01
    63542.5318    0.334278D+01
    63550.5318    0.334339D+01
    63558.5318    0.334881D+01
    63566.5318    0.335842D+01
    63574.5318    0.337165D+01
    63582.5318    0.338797D+01
    63590.5318    0.340707D+01
    63598.5318    0.342867D+01
    63606.5318    0.345238D+01
    63614.5318    0.347754D+01
    63622.5318    0.350473D+01
    63630.5318    0.353311D+01
    63638.5318    0.356294D+01
    63646.5318    0.359434D+01
    63654.5318    0.362663D+01
    63662.5318    0.365948D+01
    63670.5318    0.369319D+01
    63678.5318    0.372774D+01
    63686.5318    0.376289D+01
    63694.5318    0.379879D+01
    63702.5318    0.383506D+01
    63710.5318    0.387164D+01
    63718.5318    0.390853D+01
    63726.5318    0.394568D+01
    63734.5318    0.398298D+01
    63742.5318    0.402049D+01
    63750.5318    0.405804D+01
    63758.5318    0.409571D+01
    63766.5318    0.413327D+01
    63774.5318    0.417071D+01
    63782.5318    0.420795D+01
    63790.5318    0.424492D+01
    63798.5318    0.428149D+01
    63806.5318    0.431764D+01
    63814.5318    0.435320D+01
    63822.5318    0.438816D+01
    63830.5318    0.442233D+01
    63838.5318    0.445564D+01
    63846.5318    0.448799D+01
    63854.5318    0.451930D+01
    63862.5318    0.454950D+01
    63870.5318    0.457849D+01
    63878.5318    0.460623D+01
    63886.5318    0.463269D+01
    63894.5318    0.465777D+01
    63902.5318    0.468141D+01
    63910.5318    0.470360D+01
    63918.5318    0.472431D+01
    63926.5318    0.474353D+01
    63934.5318    0.476127D+01
    63942.5318    0.477748D+01
    63950.5318    0.479226D+01
    63958.5318    0.480545D+01
    63966.5318    0.481712D+01
    63974.5318    0.482729D+01
    63982.5318    0.483592D+01
    63990.5318    0.484305D+01
    63998.5318    0.484863D+01
    64006.5318    0.485269D+01
    64014.5318    0.485526D+01
    64022.5318    0.485629D+01
    64030.5318    0.485578D+01
    64038.5318    0.485374D+01
    64046.5318    0.485018D+01
    64054.5318    0.484512D+01
    64062.5318    0.483856D+01
    64070.5318    0.483055D+01
    64078.5318    0.482119D+01
    64086.5318    0.481042D+01
    64094.5318    0.479839D+01
    64102.5318    0.478510D+01
    64110.5318    0.477058D+01
    64118.5318    0.475498D+01
    64126.5318    0.473838D+01
    64134.5318    0.472090D+01
    64142.5318    0.470256D+01
    64150.5318    0.468360D+01
    64158.5318    0.466396D+01
    64166.5318    0.464388D+01
    64174.5318    0.462344D+01
    64182.5318    0.460274D+01
    64190.5318    0.458186D+01
    64198.5318    0.456100D+01
    64206.5318    0.454018D+01
    64214.5318    0.451959D+01
    64222.5318    0.449930D+01
    64230.5318    0.447936D+01
    64238.5318    0.445987D+01
    64246.5318    0.444091D+01
    64254.5318    0.442254D+01
    64262.5318    0.440489D+01
    64270.5318    0.438797D+01
    64278.5318    0.437194D+01
    64286.5318    0.435677D+01
    64294.5318    0.434258D+01
    64302.5318    0.432934D+01
    64310.5318    0.431718D+01
    64318.5318    0.430615D+01
    64326.5318    0.429634D+01
    64334.5318    0.428778D+01
    64342.5318    0.428062D+01
    64350.5318    0.427483D+01
    64358.5318    0.427060D+01
    64366.5318    0.426794D+01
    64374.5318    0.426694D+01
    64382.5318    0.426764D+01
    64390.5318    0.427019D+01
    64398.5318    0.427450D+01
    64406.5318    0.428081D+01
    64414.5318    0.428901D+01
    64422.5318    0.429911D+01
    64430.5318    0.431108D+01
    64438.5318    0.432483D+01
    64446.5318    0.434025D+01
    64454.5318    0.435725D+01
    64462.5318    0.437559D+01
    64470.5318    0.439513D+01
    64478.5318    0.441556D+01
    64486.5318    0.443661D+01
    64494.5318    0.445796D+01
    64502.5318    0.447919D+01
    64510.5318    0.450005D+01
    64518.5318    0.452005D+01
    64526.5318    0.453888D+01
    64534.5318    0.455616D+01
    64542.5318    0.457144D+01
    64550.5318    0.458440D+01
    64558.5318    0.459466D+01
    64566.5318    0.460188D+01
    64574.5318    0.460582D+01
    64582.5318    0.460611D+01
    64590.5318    0.460272D+01
    64598.5318    0.459539D+01
    64606.5318    0.458394D+01
    64614.5318    0.456827D+01
    64622.5318    0.454829D+01
    64630.5318    0.452392D+01
    64638.5318    0.449515D+01
    64646.5318    0.446190D+01
    64654.5318    0.442426D+01
    64662.5318    0.438217D+01
    64670.5318    0.433562D+01
    64678.5318    0.428460D+01
    64686.5318    0.422910D+01
    64694.5318    0.416908D+01
    64702.5318    0.410460D+01
    64710.5318    0.403552D+01
    64718.5318    0.396206D+01
    64726.5318    0.388411D+01
    64734.5318    0.380171D+01
    64742.5318    0.371491D+01
    64750.5318    0.362378D+01
    64758.5318    0.352845D+01
    64766.5318    0.342912D+01
    64774.5318    0.332590D+01
 -----------------------------

 Leave Link  718 at Sat May 31 03:39:07 2025, MaxMem=  2147483648 cpu:              35.3 elap:              35.3
 (Enter /global/homes/r/rkang35/g16/l9999.exe)

 ----------------------------------------------------------------------

 Electric dipole moment (input orientation):
 (Debye = 10**-18 statcoulomb cm , SI units = C m)
                  (au)            (Debye)         (10**-30 SI)
   Tot        0.119813D+02      0.304534D+02      0.101582D+03
   x          0.703783D+01      0.178884D+02      0.596692D+02
   y          0.567863D+01      0.144336D+02      0.481454D+02
   z          0.785961D+01      0.199771D+02      0.666365D+02

 Dipole polarizability, Alpha (input orientation).
 (esu units = cm**3 , SI units = C**2 m**2 J**-1)
 Alpha(0;0):
               (au)            (10**-24 esu)      (10**-40 SI)
   iso        0.177613D+03      0.263196D+02      0.292845D+02
   aniso      0.238668D+03      0.353670D+02      0.393511D+02
   xx         0.209183D+03      0.309977D+02      0.344896D+02
   yx         0.905105D+01      0.134123D+01      0.149232D+01
   yy         0.137336D+03      0.203510D+02      0.226436D+02
   zx         0.124634D+03      0.184688D+02      0.205493D+02
   zy        -0.449963D+02     -0.666776D+01     -0.741889D+01
   zz         0.186322D+03      0.276101D+02      0.307203D+02

 ----------------------------------------------------------------------

 Dipole orientation:
     6          0.84021329         -0.17811742          2.54977262
     6         -0.84021329          0.17811742         -2.54977262
     6          1.66351251         -0.41291897          5.07554831
     6         -1.66351251          0.41291897         -5.07554831
     6          1.70076776         -2.75677293          6.25063077
     6         -1.70076776          2.75677293         -6.25063077
     6          0.92029376         -4.92673458          4.94402519
     6         -0.92029376          4.92673458         -4.94402519
     6          0.10053664         -4.75841629          2.45896687
     6         -0.10053664          4.75841629         -2.45896687
     6          0.04013152         -2.40263288          1.21032121
     6         -0.04013152          2.40263288         -1.21032121
     6          0.78061147          2.17034141          1.30684050
     6         -0.78061147         -2.17034141         -1.30684050
     1          2.26912063          1.25825150          6.09508891
     1         -2.26912063         -1.25825150         -6.09508891
     1          2.33681487         -2.91291870          8.19047759
     1         -2.33681487          2.91291870         -8.19047759
     1          0.95809550         -6.74605344          5.88242410
     1         -0.95809550          6.74605344         -5.88242410
     1         -0.50070584         -6.44245484          1.45818499
     1          0.50070584          6.44245484         -1.45818499
     1          1.38463688          3.84964160          2.31802807
     1         -1.38463688         -3.84964160         -2.31802807

 Electric dipole moment (dipole orientation):
 (Debye = 10**-18 statcoulomb cm , SI units = C m)
                  (au)            (Debye)         (10**-30 SI)
   Tot        0.119813D+02      0.304534D+02      0.101582D+03
   x          0.000000D+00      0.000000D+00      0.000000D+00
   y          0.000000D+00      0.000000D+00      0.000000D+00
   z          0.119813D+02      0.304534D+02      0.101582D+03

 Dipole polarizability, Alpha (dipole orientation).
 (esu units = cm**3 , SI units = C**2 m**2 J**-1)
 Alpha(0;0):
               (au)            (10**-24 esu)      (10**-40 SI)
   iso        0.177613D+03      0.263196D+02      0.292845D+02
   aniso      0.238668D+03      0.353670D+02      0.393511D+02
   xx         0.720557D+02      0.106775D+02      0.118804D+02
   yx        -0.467005D+01     -0.692030D+00     -0.769987D+00
   yy         0.204469D+03      0.302991D+02      0.337123D+02
   zx         0.562451D+02      0.833467D+01      0.927357D+01
   zy        -0.823004D+02     -0.121957D+02     -0.135695D+02
   zz         0.256316D+03      0.379821D+02      0.422608D+02

 ----------------------------------------------------------------------

 This type of calculation cannot be archived.


 MUD THROWN IS GROUND LOST -- FROM A TEA BAG
 Job cpu time:       0 days  0 hours  0 minutes 35.5 seconds.
 Elapsed time:       0 days  0 hours  0 minutes 35.5 seconds.
 File lengths (MBytes):  RWF=      6 Int=      0 D2E=      0 Chk=      8 Scr=      1
 Normal termination of Gaussian 16 at Sat May 31 03:39:07 2025.
