 Entering Gaussian System, Link 0=g16
 Initial command:
 /global/homes/r/rkang35/g16/l1.exe "/pscratch/sd/r/rkang35/GaussianScratch/Gau-862940.inp" -scrdir="/pscratch/sd/r/rkang35/GaussianScratch/"
 Entering Link 1 = /global/homes/r/rkang35/g16/l1.exe PID=    862941.
  
 Copyright (c) 1988,1990,1992,1993,1995,1998,2003,2009,2016,
            Gaussian, Inc.  All Rights Reserved.
  
 This is part of the Gaussian(R) 16 program.  It is based on
 the Gaussian(R) 09 system (copyright 2009, Gaussian, Inc.),
 the Gaussian(R) 03 system (copyright 2003, Gaussian, Inc.),
 the Gaussian(R) 98 system (copyright 1998, Gaussian, Inc.),
 the Gaussian(R) 94 system (copyright 1995, Gaussian, Inc.),
 the Gaussian 92(TM) system (copyright 1992, Gaussian, Inc.),
 the Gaussian 90(TM) system (copyright 1990, Gaussian, Inc.),
 the Gaussian 88(TM) system (copyright 1988, Gaussian, Inc.),
 the Gaussian 86(TM) system (copyright 1986, Carnegie Mellon
 University), and the Gaussian 82(TM) system (copyright 1983,
 Carnegie Mellon University). Gaussian is a federally registered
 trademark of Gaussian, Inc.
  
 This software contains proprietary and confidential information,
 including trade secrets, belonging to Gaussian, Inc.
  
 This software is provided under written license and may be
 used, copied, transmitted, or stored only in accord with that
 written license.
  
 The following legend is applicable only to US Government
 contracts under FAR:
  
                    RESTRICTED RIGHTS LEGEND
  
 Use, reproduction and disclosure by the US Government is
 subject to restrictions as set forth in subparagraphs (a)
 and (c) of the Commercial Computer Software - Restricted
 Rights clause in FAR 52.227-19.
  
 Gaussian, Inc.
 340 Quinnipiac St., Bldg. 40, Wallingford CT 06492
  
  
 ---------------------------------------------------------------
 Warning -- This program may not be used in any manner that
 competes with the business of Gaussian, Inc. or will provide
 assistance to any competitor of Gaussian, Inc.  The licensee
 of this program is prohibited from giving any competitor of
 Gaussian, Inc. access to this program.  By using this program,
 the user acknowledges that Gaussian, Inc. is engaged in the
 business of creating and licensing software in the field of
 computational chemistry and represents and warrants to the
 licensee that it is not a competitor of Gaussian, Inc. and that
 it will not use this program in any manner prohibited above.
 ---------------------------------------------------------------
  

 Cite this work as:
 Gaussian 16, Revision A.03,
 M. J. Frisch, G. W. Trucks, H. B. Schlegel, G. E. Scuseria, 
 M. A. Robb, J. R. Cheeseman, G. Scalmani, V. Barone, 
 G. A. Petersson, H. Nakatsuji, X. Li, M. Caricato, A. V. Marenich, 
 J. Bloino, B. G. Janesko, R. Gomperts, B. Mennucci, H. P. Hratchian, 
 J. V. Ortiz, A. F. Izmaylov, J. L. Sonnenberg, D. Williams-Young, 
 F. Ding, F. Lipparini, F. Egidi, J. Goings, B. Peng, A. Petrone, 
 T. Henderson, D. Ranasinghe, V. G. Zakrzewski, J. Gao, N. Rega, 
 G. Zheng, W. Liang, M. Hada, M. Ehara, K. Toyota, R. Fukuda, 
 J. Hasegawa, M. Ishida, T. Nakajima, Y. Honda, O. Kitao, H. Nakai, 
 T. Vreven, K. Throssell, J. A. Montgomery, Jr., J. E. Peralta, 
 F. Ogliaro, M. J. Bearpark, J. J. Heyd, E. N. Brothers, K. N. Kudin, 
 V. N. Staroverov, T. A. Keith, R. Kobayashi, J. Normand, 
 K. Raghavachari, A. P. Rendell, J. C. Burant, S. S. Iyengar, 
 J. Tomasi, M. Cossi, J. M. Millam, M. Klene, C. Adamo, R. Cammi, 
 J. W. Ochterski, R. L. Martin, K. Morokuma, O. Farkas, 
 J. B. Foresman, and D. J. Fox, Gaussian, Inc., Wallingford CT, 2016.
 
 ******************************************
 Gaussian 16:  ES64L-G16RevA.03 25-Dec-2016
                31-May-2025 
 ******************************************
 %mem=16GB
 %oldchk=neutral.chk
 %chk=fc.chk
 Copying data from "neutral.chk" to current chk file "fc.chk"
 IOpt=  2 FromEx=T IUOpen= 4 IOptOp= 5 NList=   0 IFRang= 0 IUIn= 4 IUOut= 2.
 ----------------------------------------------------------------------
 #P b3lyp/6-311G* EmpiricalDispersion=GD3BJ Geom=AllCheck Freq=(READFC,
 FC,ReadFCHT)
 ----------------------------------------------------------------------
 1/29=7,38=1,172=1/1;
 2/12=2,40=1/2;
 7/8=1,25=11,71=10,121=1/16,18;
 99/5=5/99;
 Leave Link    1 at Sat May 31 03:39:07 2025, MaxMem=  2147483648 cpu:               0.0 elap:               0.0
 (Enter /global/homes/r/rkang35/g16/l101.exe)
 Structure from the checkpoint file:  "fc.chk"
 ------------------------------
 Gaussian input prepared by ASE
 ------------------------------
 Charge =  0 Multiplicity = 1
 Redundant internal coordinates found in file.  (old form).
 C,0,4.8794930506,3.4912808895,4.8215200205
 C,0,2.5690227894,2.5187191105,3.4967301195
 C,0,6.0435984053,3.9394331841,5.5153158715
 C,0,1.4049174347,2.0705668159,2.8029342685
 C,0,6.6238903913,3.1709256089,6.4842422362
 C,0,0.8246254486,2.8390743911,1.8340079038
 C,0,6.0756136362,1.9010521074,6.8226010922
 C,0,1.3729022038,4.1089478926,1.4956490477
 C,0,4.9623083749,1.435086033,6.1825994425
 C,0,2.4862074651,4.574913967,2.1356506975
 C,0,4.3242085935,2.2051775294,5.164206058
 C,0,3.1243072465,3.8048224706,3.154044082
 C,0,4.2636169211,4.2541944409,3.8262747007
 C,0,3.1848989189,1.7558055591,4.4919754393
 H,0,6.4609039665,4.9078294316,5.2565947132
 H,0,0.9876118735,1.1021705684,3.0616554268
 H,0,7.5085402824,3.5244146129,7.0033579724
 H,0,-0.0600244424,2.4855853871,1.3148921676
 H,0,6.5501523471,1.3047777574,7.5948016022
 H,0,0.8983634929,4.7052222426,0.7234485378
 H,0,4.5434568613,0.4669850018,6.4398723566
 H,0,2.9050589787,5.5430149982,1.8783777834
 H,0,4.6819877066,5.2231299836,3.5681034553
 H,0,2.7665281334,0.7868700164,4.7501466847
 Recover connectivity data from disk.
 ITRead=  0  0  0  0  0  0  0  0  0  0  0  0  0  0  0  0  0  0  0  0
 ITRead=  0  0  0  0
 MicOpt= -1 -1 -1 -1 -1 -1 -1 -1 -1 -1 -1 -1 -1 -1 -1 -1 -1 -1 -1 -1
 MicOpt= -1 -1 -1 -1
                           ----------------------------
                           !    Current Parameters    !
                           ! (Angstroms and Degrees)  !
 --------------------------                            --------------------------
 ! Name  Definition              Value          Derivative Info.                !
 --------------------------------------------------------------------------------
 ! R1    R(1,3)                  1.4274         estimate D2E/DX2                !
 ! R2    R(1,11)                 1.4422         estimate D2E/DX2                !
 ! R3    R(1,13)                 1.3971         estimate D2E/DX2                !
 ! R4    R(2,4)                  1.4274         estimate D2E/DX2                !
 ! R5    R(2,12)                 1.4422         estimate D2E/DX2                !
 ! R6    R(2,14)                 1.3971         estimate D2E/DX2                !
 ! R7    R(3,5)                  1.3661         estimate D2E/DX2                !
 ! R8    R(3,15)                 1.0858         estimate D2E/DX2                !
 ! R9    R(4,6)                  1.3661         estimate D2E/DX2                !
 ! R10   R(4,16)                 1.0858         estimate D2E/DX2                !
 ! R11   R(5,7)                  1.424          estimate D2E/DX2                !
 ! R12   R(5,17)                 1.0849         estimate D2E/DX2                !
 ! R13   R(6,8)                  1.424          estimate D2E/DX2                !
 ! R14   R(6,18)                 1.0849         estimate D2E/DX2                !
 ! R15   R(7,9)                  1.3661         estimate D2E/DX2                !
 ! R16   R(7,19)                 1.0849         estimate D2E/DX2                !
 ! R17   R(8,10)                 1.3661         estimate D2E/DX2                !
 ! R18   R(8,20)                 1.0849         estimate D2E/DX2                !
 ! R19   R(9,11)                 1.4274         estimate D2E/DX2                !
 ! R20   R(9,21)                 1.0857         estimate D2E/DX2                !
 ! R21   R(10,12)                1.4274         estimate D2E/DX2                !
 ! R22   R(10,22)                1.0857         estimate D2E/DX2                !
 ! R23   R(11,14)                1.3971         estimate D2E/DX2                !
 ! R24   R(12,13)                1.3971         estimate D2E/DX2                !
 ! R25   R(13,23)                1.0865         estimate D2E/DX2                !
 ! R26   R(14,24)                1.0865         estimate D2E/DX2                !
 ! A1    A(3,1,11)             118.5889         estimate D2E/DX2                !
 ! A2    A(3,1,13)             122.2989         estimate D2E/DX2                !
 ! A3    A(11,1,13)            119.1121         estimate D2E/DX2                !
 ! A4    A(4,2,12)             118.5889         estimate D2E/DX2                !
 ! A5    A(4,2,14)             122.2989         estimate D2E/DX2                !
 ! A6    A(12,2,14)            119.1121         estimate D2E/DX2                !
 ! A7    A(1,3,5)              120.9689         estimate D2E/DX2                !
 ! A8    A(1,3,15)             118.5335         estimate D2E/DX2                !
 ! A9    A(5,3,15)             120.4976         estimate D2E/DX2                !
 ! A10   A(2,4,6)              120.9689         estimate D2E/DX2                !
 ! A11   A(2,4,16)             118.5335         estimate D2E/DX2                !
 ! A12   A(6,4,16)             120.4976         estimate D2E/DX2                !
 ! A13   A(3,5,7)              120.4421         estimate D2E/DX2                !
 ! A14   A(3,5,17)             120.1628         estimate D2E/DX2                !
 ! A15   A(7,5,17)             119.3951         estimate D2E/DX2                !
 ! A16   A(4,6,8)              120.4421         estimate D2E/DX2                !
 ! A17   A(4,6,18)             120.1628         estimate D2E/DX2                !
 ! A18   A(8,6,18)             119.3951         estimate D2E/DX2                !
 ! A19   A(5,7,9)              120.4412         estimate D2E/DX2                !
 ! A20   A(5,7,19)             119.3963         estimate D2E/DX2                !
 ! A21   A(9,7,19)             120.1625         estimate D2E/DX2                !
 ! A22   A(6,8,10)             120.4412         estimate D2E/DX2                !
 ! A23   A(6,8,20)             119.3963         estimate D2E/DX2                !
 ! A24   A(10,8,20)            120.1625         estimate D2E/DX2                !
 ! A25   A(7,9,11)             120.9683         estimate D2E/DX2                !
 ! A26   A(7,9,21)             120.4985         estimate D2E/DX2                !
 ! A27   A(11,9,21)            118.5332         estimate D2E/DX2                !
 ! A28   A(8,10,12)            120.9683         estimate D2E/DX2                !
 ! A29   A(8,10,22)            120.4985         estimate D2E/DX2                !
 ! A30   A(12,10,22)           118.5332         estimate D2E/DX2                !
 ! A31   A(1,11,9)             118.5906         estimate D2E/DX2                !
 ! A32   A(1,11,14)            119.1108         estimate D2E/DX2                !
 ! A33   A(9,11,14)            122.2986         estimate D2E/DX2                !
 ! A34   A(2,12,10)            118.5906         estimate D2E/DX2                !
 ! A35   A(2,12,13)            119.1108         estimate D2E/DX2                !
 ! A36   A(10,12,13)           122.2986         estimate D2E/DX2                !
 ! A37   A(1,13,12)            121.777          estimate D2E/DX2                !
 ! A38   A(1,13,23)            119.111          estimate D2E/DX2                !
 ! A39   A(12,13,23)           119.112          estimate D2E/DX2                !
 ! A40   A(2,14,11)            121.777          estimate D2E/DX2                !
 ! A41   A(2,14,24)            119.111          estimate D2E/DX2                !
 ! A42   A(11,14,24)           119.112          estimate D2E/DX2                !
 ! D1    D(11,1,3,5)             0.001          estimate D2E/DX2                !
 ! D2    D(11,1,3,15)          179.9994         estimate D2E/DX2                !
 ! D3    D(13,1,3,5)          -179.9993         estimate D2E/DX2                !
 ! D4    D(13,1,3,15)           -0.0009         estimate D2E/DX2                !
 ! D5    D(3,1,11,9)             0.0003         estimate D2E/DX2                !
 ! D6    D(3,1,11,14)          179.9992         estimate D2E/DX2                !
 ! D7    D(13,1,11,9)         -179.9994         estimate D2E/DX2                !
 ! D8    D(13,1,11,14)          -0.0005         estimate D2E/DX2                !
 ! D9    D(3,1,13,12)         -179.9992         estimate D2E/DX2                !
 ! D10   D(3,1,13,23)            0.001          estimate D2E/DX2                !
 ! D11   D(11,1,13,12)           0.0005         estimate D2E/DX2                !
 ! D12   D(11,1,13,23)        -179.9993         estimate D2E/DX2                !
 ! D13   D(12,2,4,6)            -0.001          estimate D2E/DX2                !
 ! D14   D(12,2,4,16)         -179.9994         estimate D2E/DX2                !
 ! D15   D(14,2,4,6)           179.9993         estimate D2E/DX2                !
 ! D16   D(14,2,4,16)            0.0009         estimate D2E/DX2                !
 ! D17   D(4,2,12,10)           -0.0003         estimate D2E/DX2                !
 ! D18   D(4,2,12,13)         -179.9992         estimate D2E/DX2                !
 ! D19   D(14,2,12,10)         179.9994         estimate D2E/DX2                !
 ! D20   D(14,2,12,13)           0.0005         estimate D2E/DX2                !
 ! D21   D(4,2,14,11)          179.9992         estimate D2E/DX2                !
 ! D22   D(4,2,14,24)           -0.001          estimate D2E/DX2                !
 ! D23   D(12,2,14,11)          -0.0005         estimate D2E/DX2                !
 ! D24   D(12,2,14,24)         179.9993         estimate D2E/DX2                !
 ! D25   D(1,3,5,7)             -0.0009         estimate D2E/DX2                !
 ! D26   D(1,3,5,17)           179.9995         estimate D2E/DX2                !
 ! D27   D(15,3,5,7)          -179.9993         estimate D2E/DX2                !
 ! D28   D(15,3,5,17)            0.0011         estimate D2E/DX2                !
 ! D29   D(2,4,6,8)              0.0009         estimate D2E/DX2                !
 ! D30   D(2,4,6,18)          -179.9995         estimate D2E/DX2                !
 ! D31   D(16,4,6,8)           179.9993         estimate D2E/DX2                !
 ! D32   D(16,4,6,18)           -0.0011         estimate D2E/DX2                !
 ! D33   D(3,5,7,9)             -0.0005         estimate D2E/DX2                !
 ! D34   D(3,5,7,19)          -179.9972         estimate D2E/DX2                !
 ! D35   D(17,5,7,9)           179.999          estimate D2E/DX2                !
 ! D36   D(17,5,7,19)            0.0024         estimate D2E/DX2                !
 ! D37   D(4,6,8,10)             0.0005         estimate D2E/DX2                !
 ! D38   D(4,6,8,20)           179.9972         estimate D2E/DX2                !
 ! D39   D(18,6,8,10)         -179.999          estimate D2E/DX2                !
 ! D40   D(18,6,8,20)           -0.0024         estimate D2E/DX2                !
 ! D41   D(5,7,9,11)             0.0018         estimate D2E/DX2                !
 ! D42   D(5,7,9,21)          -179.998          estimate D2E/DX2                !
 ! D43   D(19,7,9,11)          179.9985         estimate D2E/DX2                !
 ! D44   D(19,7,9,21)           -0.0013         estimate D2E/DX2                !
 ! D45   D(6,8,10,12)           -0.0018         estimate D2E/DX2                !
 ! D46   D(6,8,10,22)          179.998          estimate D2E/DX2                !
 ! D47   D(20,8,10,12)        -179.9985         estimate D2E/DX2                !
 ! D48   D(20,8,10,22)           0.0013         estimate D2E/DX2                !
 ! D49   D(7,9,11,1)            -0.0017         estimate D2E/DX2                !
 ! D50   D(7,9,11,14)          179.9994         estimate D2E/DX2                !
 ! D51   D(21,9,11,1)          179.9981         estimate D2E/DX2                !
 ! D52   D(21,9,11,14)          -0.0008         estimate D2E/DX2                !
 ! D53   D(8,10,12,2)            0.0017         estimate D2E/DX2                !
 ! D54   D(8,10,12,13)        -179.9994         estimate D2E/DX2                !
 ! D55   D(22,10,12,2)        -179.9981         estimate D2E/DX2                !
 ! D56   D(22,10,12,13)          0.0008         estimate D2E/DX2                !
 ! D57   D(1,11,14,2)            0.0005         estimate D2E/DX2                !
 ! D58   D(1,11,14,24)        -179.9993         estimate D2E/DX2                !
 ! D59   D(9,11,14,2)          179.9994         estimate D2E/DX2                !
 ! D60   D(9,11,14,24)          -0.0004         estimate D2E/DX2                !
 ! D61   D(2,12,13,1)           -0.0005         estimate D2E/DX2                !
 ! D62   D(2,12,13,23)         179.9993         estimate D2E/DX2                !
 ! D63   D(10,12,13,1)        -179.9994         estimate D2E/DX2                !
 ! D64   D(10,12,13,23)          0.0004         estimate D2E/DX2                !
 --------------------------------------------------------------------------------
 NAtoms=     24 NQM=       24 NQMF=       0 NMMI=      0 NMMIF=      0
                NMic=       0 NMicF=      0.
                    Isotopes and Nuclear Properties:
 (Nuclear quadrupole moments (NQMom) in fm**2, nuclear magnetic moments (NMagM)
  in nuclear magnetons)

  Atom         1           2           3           4           5           6           7           8           9          10
 IAtWgt=          12          12          12          12          12          12          12          12          12          12
 AtmWgt=  12.0000000  12.0000000  12.0000000  12.0000000  12.0000000  12.0000000  12.0000000  12.0000000  12.0000000  12.0000000
 NucSpn=           0           0           0           0           0           0           0           0           0           0
 AtZEff=   3.6000000   3.6000000   3.6000000   3.6000000   3.6000000   3.6000000   3.6000000   3.6000000   3.6000000   3.6000000
 NQMom=    0.0000000   0.0000000   0.0000000   0.0000000   0.0000000   0.0000000   0.0000000   0.0000000   0.0000000   0.0000000
 NMagM=    0.0000000   0.0000000   0.0000000   0.0000000   0.0000000   0.0000000   0.0000000   0.0000000   0.0000000   0.0000000
 AtZNuc=   6.0000000   6.0000000   6.0000000   6.0000000   6.0000000   6.0000000   6.0000000   6.0000000   6.0000000   6.0000000

  Atom        11          12          13          14          15          16          17          18          19          20
 IAtWgt=          12          12          12          12           1           1           1           1           1           1
 AtmWgt=  12.0000000  12.0000000  12.0000000  12.0000000   1.0078250   1.0078250   1.0078250   1.0078250   1.0078250   1.0078250
 NucSpn=           0           0           0           0           1           1           1           1           1           1
 AtZEff=   3.6000000   3.6000000   3.6000000   3.6000000   1.0000000   1.0000000   1.0000000   1.0000000   1.0000000   1.0000000
 NQMom=    0.0000000   0.0000000   0.0000000   0.0000000   0.0000000   0.0000000   0.0000000   0.0000000   0.0000000   0.0000000
 NMagM=    0.0000000   0.0000000   0.0000000   0.0000000   2.7928460   2.7928460   2.7928460   2.7928460   2.7928460   2.7928460
 AtZNuc=   6.0000000   6.0000000   6.0000000   6.0000000   1.0000000   1.0000000   1.0000000   1.0000000   1.0000000   1.0000000

  Atom        21          22          23          24
 IAtWgt=           1           1           1           1
 AtmWgt=   1.0078250   1.0078250   1.0078250   1.0078250
 NucSpn=           1           1           1           1
 AtZEff=   1.0000000   1.0000000   1.0000000   1.0000000
 NQMom=    0.0000000   0.0000000   0.0000000   0.0000000
 NMagM=    2.7928460   2.7928460   2.7928460   2.7928460
 AtZNuc=   1.0000000   1.0000000   1.0000000   1.0000000
 Leave Link  101 at Sat May 31 03:39:07 2025, MaxMem=  2147483648 cpu:               0.1 elap:               0.1
 (Enter /global/homes/r/rkang35/g16/l202.exe)
                          Input orientation:                          
 ---------------------------------------------------------------------
 Center     Atomic      Atomic             Coordinates (Angstroms)
 Number     Number       Type             X           Y           Z
 ---------------------------------------------------------------------
      1          6           0        4.879493    3.491281    4.821520
      2          6           0        2.569023    2.518719    3.496730
      3          6           0        6.043598    3.939433    5.515316
      4          6           0        1.404917    2.070567    2.802934
      5          6           0        6.623890    3.170926    6.484242
      6          6           0        0.824625    2.839074    1.834008
      7          6           0        6.075614    1.901052    6.822601
      8          6           0        1.372902    4.108948    1.495649
      9          6           0        4.962308    1.435086    6.182599
     10          6           0        2.486207    4.574914    2.135651
     11          6           0        4.324209    2.205178    5.164206
     12          6           0        3.124307    3.804822    3.154044
     13          6           0        4.263617    4.254194    3.826275
     14          6           0        3.184899    1.755806    4.491975
     15          1           0        6.460904    4.907829    5.256595
     16          1           0        0.987612    1.102171    3.061655
     17          1           0        7.508540    3.524415    7.003358
     18          1           0       -0.060024    2.485585    1.314892
     19          1           0        6.550152    1.304778    7.594802
     20          1           0        0.898363    4.705222    0.723449
     21          1           0        4.543457    0.466985    6.439872
     22          1           0        2.905059    5.543015    1.878378
     23          1           0        4.681988    5.223130    3.568103
     24          1           0        2.766528    0.786870    4.750147
 ---------------------------------------------------------------------
                    Distance matrix (angstroms):
                    1          2          3          4          5
     1  C    0.000000
     2  C    2.835351   0.000000
     3  C    1.427352   4.262135   0.000000
     4  C    4.262135   1.427352   5.689204   0.000000
     5  C    2.431089   5.078637   1.366075   6.480779   0.000000
     6  C    5.078637   2.431089   6.480779   1.366075   7.440852
     7  C    2.822031   4.872280   2.421780   6.164565   1.423964
     8  C    4.872280   2.822031   6.164565   2.421780   7.303343
     9  C    2.467252   3.757123   2.808240   4.947828   2.421773
    10  C    3.757123   2.467252   4.947828   2.808240   6.164564
    11  C    1.442164   2.441201   2.467230   3.757125   2.822003
    12  C    2.441201   1.442164   3.757125   2.467230   4.872282
    13  C    1.397088   2.447881   2.473918   3.740002   3.716067
    14  C    2.447881   1.397088   3.740002   2.473918   4.218810
    15  H    2.167201   4.894048   1.085759   6.295515   2.133194
    16  H    4.894048   2.167201   6.295515   1.085759   6.910968
    17  H    3.416636   6.140578   2.128982   7.550592   1.084915
    18  H    6.140578   3.416636   7.550592   2.128982   8.477416
    19  H    3.906788   5.840996   3.394446   7.072614   2.172852
    20  H    5.840996   3.906788   7.072614   3.394446   8.265741
    21  H    3.446498   4.095130   3.893986   5.064506   3.411959
    22  H    4.095130   3.446498   5.064506   3.893986   6.377343
    23  H    2.146943   3.432718   2.700648   4.611218   4.060344
    24  H    3.432718   2.146943   4.611218   2.700648   4.854900
                    6          7          8          9         10
     6  C    0.000000
     7  C    7.303343   0.000000
     8  C    1.423964   7.440881   0.000000
     9  C    6.164564   1.366080   6.480808   0.000000
    10  C    2.421773   6.480808   1.366080   5.689235   0.000000
    11  C    4.872282   2.431087   5.078667   1.427353   4.262165
    12  C    2.822003   5.078667   2.431087   4.262165   1.427353
    13  C    4.218810   4.218837   3.716066   3.740028   2.473915
    14  C    3.716067   3.716066   4.218837   2.473915   3.740028
    15  H    6.910968   3.411969   6.377357   3.893998   5.064517
    16  H    2.133194   6.377357   3.411969   5.064517   3.893998
    17  H    8.477416   2.172846   8.265748   3.394442   7.072620
    18  H    1.084915   8.265748   2.172846   7.072620   3.394442
    19  H    8.265741   1.084907   8.477438   2.128977   7.550614
    20  H    2.172852   8.477438   1.084907   7.550614   2.128977
    21  H    6.377343   2.133198   6.910981   1.085747   6.295529
    22  H    3.411959   6.910981   2.133198   6.295529   1.085747
    23  H    4.854900   4.854910   4.060359   4.611230   2.700658
    24  H    4.060344   4.060359   4.854910   2.700658   4.611230
                   11         12         13         14         15
    11  C    0.000000
    12  C    2.835380   0.000000
    13  C    2.447897   1.397088   0.000000
    14  C    1.397088   2.447897   2.801560   0.000000
    15  H    3.446495   4.095146   2.702059   4.610001   0.000000
    16  H    4.095146   3.446495   4.610001   2.702059   7.018385
    17  H    3.906768   5.841006   4.599561   5.303668   2.462227
    18  H    5.841006   3.906768   5.303668   4.599561   7.995423
    19  H    3.416627   6.140600   5.303687   4.599553   4.296179
    20  H    6.140600   3.416627   4.599553   5.303687   7.178602
    21  H    2.167189   4.894059   4.610006   2.702044   4.979744
    22  H    4.894059   2.167189   2.702044   4.610006   4.945689
    23  H    3.432723   2.146954   1.086519   3.888078   2.472845
    24  H    2.146954   3.432723   3.888078   1.086519   5.557626
                   16         17         18         19         20
    16  H    0.000000
    17  H    7.995423   0.000000
    18  H    2.462227   9.524756   0.000000
    19  H    7.178602   2.488996   9.193803   0.000000
    20  H    4.296179   9.193803   2.488996   9.524769   0.000000
    21  H    4.945689   4.296174   7.178594   2.462232   7.995428
    22  H    4.979744   7.178594   4.296174   7.995428   2.462232
    23  H    5.557626   4.761933   5.920962   5.920965   4.761943
    24  H    2.472845   5.920962   4.761933   4.761943   5.920965
                   21         22         23         24
    21  H    0.000000
    22  H    7.018380   0.000000
    23  H    5.557622   2.472848   0.000000
    24  H    2.472848   5.557622   4.974597   0.000000
 Stoichiometry    C14H10
 Framework group  CI[X(C14H10)]
 Deg. of freedom    33
 Full point group                 CI      NOp   2
 Largest Abelian subgroup         CI      NOp   2
 Largest concise Abelian subgroup CI      NOp   2
                         Standard orientation:                         
 ---------------------------------------------------------------------
 Center     Atomic      Atomic             Coordinates (Angstroms)
 Number     Number       Type             X           Y           Z
 ---------------------------------------------------------------------
      1          6           0        1.155235    0.486281    0.662395
      2          6           0       -1.155235   -0.486281   -0.662395
      3          6           0        2.319340    0.934433    1.356191
      4          6           0       -2.319340   -0.934433   -1.356191
      5          6           0        2.899632    0.165926    2.325117
      6          6           0       -2.899632   -0.165926   -2.325117
      7          6           0        2.351356   -1.103948    2.663476
      8          6           0       -2.351356    1.103948   -2.663476
      9          6           0        1.238050   -1.569914    2.023474
     10          6           0       -1.238050    1.569914   -2.023474
     11          6           0        0.599951   -0.799822    1.005081
     12          6           0       -0.599951    0.799822   -1.005081
     13          6           0        0.539359    1.249194   -0.332850
     14          6           0       -0.539359   -1.249194    0.332850
     15          1           0        2.736646    1.902829    1.097470
     16          1           0       -2.736646   -1.902829   -1.097470
     17          1           0        3.784282    0.519415    2.844233
     18          1           0       -3.784282   -0.519415   -2.844233
     19          1           0        2.825894   -1.700222    3.435677
     20          1           0       -2.825894    1.700222   -3.435677
     21          1           0        0.819199   -2.538015    2.280747
     22          1           0       -0.819199    2.538015   -2.280747
     23          1           0        0.957730    2.218130   -0.591022
     24          1           0       -0.957730   -2.218130    0.591022
 ---------------------------------------------------------------------
 Rotational constants (GHZ):           2.1530900           0.4531774           0.3743790
 Leave Link  202 at Sat May 31 03:39:07 2025, MaxMem=  2147483648 cpu:               0.0 elap:               0.0
 (Enter /global/homes/r/rkang35/g16/l716.exe)
 Electric field and nuclear coordinate derivatives read from checkpoint file.
 Rotating derivatives to standard orientation.
 Dipole        = 4.88853402D-12-5.22959454D-12-5.91171556D-12
 Polarizability= 1.85080817D+02 1.35754179D+01 1.38653576D+02
                 9.92856198D+01-4.02994951D+01 1.64894254D+02
 Full mass-weighted force constant matrix:
 Low frequencies ---   -6.4167   -0.0005    0.0001    0.0004    2.3135    3.3521
 Low frequencies ---   89.6914  120.7781  233.7802
 Diagonal vibrational polarizability:
        5.7045608       3.9374400       7.5617849
 Harmonic frequencies (cm**-1), IR intensities (KM/Mole), Raman scattering
 activities (A**4/AMU), depolarization ratios for plane and unpolarized
 incident light, reduced masses (AMU), force constants (mDyne/A),
 and normal coordinates:
                      1                      2                      3
                     AU                     AU                     AG
 Frequencies --     89.6914               120.7781               233.7802
 Red. masses --      4.9326                 3.6800                 4.8519
 Frc consts  --      0.0234                 0.0316                 0.1562
 IR Inten    --      1.4360                 0.0000                 0.0000
  Atom  AN      X      Y      Z        X      Y      Z        X      Y      Z
     1   6     0.09  -0.07  -0.10    -0.03   0.02   0.04    -0.12   0.09   0.14
     2   6     0.09  -0.07  -0.10    -0.03   0.02   0.04     0.12  -0.09  -0.14
     3   6    -0.01   0.00   0.01    -0.12   0.09   0.14    -0.09   0.07   0.11
     4   6    -0.01   0.00   0.01    -0.12   0.09   0.14     0.09  -0.07  -0.11
     5   6    -0.12   0.09   0.15    -0.07   0.06   0.09     0.09  -0.06  -0.10
     6   6    -0.12   0.09   0.15    -0.07   0.06   0.09    -0.09   0.06   0.10
     7   6    -0.12   0.09   0.15     0.07  -0.05  -0.09     0.09  -0.06  -0.10
     8   6    -0.12   0.09   0.15     0.07  -0.05  -0.09    -0.09   0.06   0.10
     9   6    -0.01   0.01   0.01     0.12  -0.09  -0.14    -0.09   0.07   0.11
    10   6    -0.01   0.01   0.01     0.12  -0.09  -0.14     0.09  -0.07  -0.11
    11   6     0.09  -0.06  -0.10     0.03  -0.03  -0.04    -0.12   0.09   0.14
    12   6     0.09  -0.06  -0.10     0.03  -0.03  -0.04     0.12  -0.09  -0.14
    13   6     0.12  -0.09  -0.14     0.00  -0.00  -0.00     0.00  -0.00  -0.00
    14   6     0.12  -0.09  -0.14     0.00  -0.00  -0.00    -0.00   0.00   0.00
    15   1    -0.01   0.00   0.01    -0.21   0.16   0.25    -0.11   0.09   0.14
    16   1    -0.01   0.00   0.01    -0.21   0.16   0.25     0.11  -0.09  -0.14
    17   1    -0.22   0.16   0.26    -0.14   0.10   0.17     0.20  -0.15  -0.24
    18   1    -0.22   0.16   0.26    -0.14   0.10   0.17    -0.20   0.15   0.24
    19   1    -0.22   0.16   0.26     0.14  -0.10  -0.16     0.20  -0.15  -0.24
    20   1    -0.22   0.16   0.26     0.14  -0.10  -0.16    -0.20   0.15   0.24
    21   1    -0.01   0.01   0.01     0.21  -0.16  -0.25    -0.11   0.08   0.14
    22   1    -0.01   0.01   0.01     0.21  -0.16  -0.25     0.11  -0.08  -0.14
    23   1     0.11  -0.08  -0.13     0.00  -0.00  -0.00     0.00  -0.00  -0.00
    24   1     0.11  -0.08  -0.13     0.00  -0.00  -0.00    -0.00   0.00   0.00
                      4                      5                      6
                     AU                     AG                     AU
 Frequencies --    237.0220               268.6607               385.8321
 Red. masses --      4.4589                 3.6989                 3.3118
 Frc consts  --      0.1476                 0.1573                 0.2905
 IR Inten    --      1.4010                 0.0000                 0.0313
  Atom  AN      X      Y      Z        X      Y      Z        X      Y      Z
     1   6    -0.07  -0.12   0.02    -0.05   0.04   0.06     0.01  -0.01  -0.01
     2   6    -0.07  -0.12   0.02     0.05  -0.04  -0.06     0.01  -0.01  -0.01
     3   6    -0.08   0.04  -0.09     0.05  -0.04  -0.06     0.09  -0.07  -0.11
     4   6    -0.08   0.04  -0.09    -0.05   0.04   0.06     0.09  -0.07  -0.11
     5   6     0.03   0.16  -0.08     0.07  -0.05  -0.09    -0.05   0.04   0.06
     6   6     0.03   0.16  -0.08    -0.07   0.05   0.09    -0.05   0.04   0.06
     7   6     0.10   0.15  -0.01    -0.07   0.05   0.09    -0.05   0.04   0.06
     8   6     0.10   0.15  -0.01     0.07  -0.05  -0.09    -0.05   0.04   0.06
     9   6     0.10   0.01   0.08    -0.05   0.04   0.06     0.09  -0.07  -0.11
    10   6     0.10   0.01   0.08     0.05  -0.04  -0.06     0.09  -0.07  -0.11
    11   6    -0.04  -0.12   0.05     0.05  -0.04  -0.06     0.01  -0.01  -0.01
    12   6    -0.04  -0.12   0.05    -0.05   0.04   0.06     0.01  -0.01  -0.01
    13   6    -0.06  -0.14   0.04    -0.15   0.11   0.17    -0.11   0.08   0.13
    14   6    -0.06  -0.14   0.04     0.15  -0.11  -0.17    -0.11   0.08   0.13
    15   1    -0.20   0.06  -0.20     0.11  -0.08  -0.13     0.19  -0.14  -0.23
    16   1    -0.20   0.06  -0.20    -0.11   0.08   0.13     0.19  -0.14  -0.23
    17   1     0.03   0.24  -0.13     0.16  -0.12  -0.20    -0.08   0.06   0.10
    18   1     0.03   0.24  -0.13    -0.16   0.12   0.20    -0.08   0.06   0.10
    19   1     0.17   0.22   0.01    -0.16   0.12   0.20    -0.08   0.06   0.10
    20   1     0.17   0.22   0.01     0.16  -0.12  -0.20    -0.08   0.06   0.10
    21   1     0.21  -0.02   0.19    -0.11   0.08   0.13     0.19  -0.14  -0.23
    22   1     0.21  -0.02   0.19     0.11  -0.08  -0.13     0.19  -0.14  -0.23
    23   1    -0.06  -0.14   0.04    -0.22   0.17   0.26    -0.21   0.16   0.25
    24   1    -0.06  -0.14   0.04     0.22  -0.17  -0.26    -0.21   0.16   0.25
                      7                      8                      9
                     AG                     AG                     AU
 Frequencies --    398.1850               400.8981               476.0758
 Red. masses --      4.6366                 6.7109                 2.4651
 Frc consts  --      0.4331                 0.6355                 0.3292
 IR Inten    --      0.0000                 0.0000                24.9759
  Atom  AN      X      Y      Z        X      Y      Z        X      Y      Z
     1   6     0.12   0.16  -0.00     0.08  -0.01   0.08     0.08  -0.06  -0.10
     2   6    -0.12  -0.16   0.00    -0.08   0.01  -0.08     0.08  -0.06  -0.10
     3   6     0.15   0.08   0.08     0.13  -0.07   0.15    -0.04   0.03   0.05
     4   6    -0.15  -0.08  -0.08    -0.13   0.07  -0.15    -0.04   0.03   0.05
     5   6     0.05  -0.04   0.06     0.19  -0.03   0.18     0.02  -0.02  -0.03
     6   6    -0.05   0.04  -0.06    -0.19   0.03  -0.18     0.02  -0.02  -0.03
     7   6    -0.07  -0.02  -0.05     0.19  -0.03   0.18     0.02  -0.02  -0.03
     8   6     0.07   0.02   0.05    -0.19   0.03  -0.18     0.02  -0.02  -0.03
     9   6    -0.07   0.12  -0.13     0.17   0.01   0.13    -0.04   0.03   0.05
    10   6     0.07  -0.12   0.13    -0.17  -0.01  -0.13    -0.04   0.03   0.05
    11   6     0.03   0.18  -0.09     0.08  -0.02   0.08     0.08  -0.06  -0.10
    12   6    -0.03  -0.18   0.09    -0.08   0.02  -0.08     0.08  -0.06  -0.10
    13   6    -0.02   0.00  -0.02    -0.02  -0.05   0.01    -0.07   0.05   0.08
    14   6     0.02  -0.00   0.02     0.02   0.05  -0.01    -0.07   0.05   0.08
    15   1     0.24   0.06   0.16     0.15  -0.07   0.17    -0.17   0.12   0.20
    16   1    -0.24  -0.06  -0.16    -0.15   0.07  -0.17    -0.17   0.12   0.20
    17   1     0.05  -0.16   0.14     0.19   0.01   0.15    -0.03   0.02   0.04
    18   1    -0.05   0.16  -0.14    -0.19  -0.01  -0.15    -0.03   0.02   0.04
    19   1    -0.17  -0.12  -0.06     0.16  -0.07   0.18    -0.03   0.02   0.04
    20   1     0.17   0.12   0.06    -0.16   0.07  -0.18    -0.03   0.02   0.04
    21   1    -0.15   0.13  -0.21     0.19   0.01   0.15    -0.17   0.12   0.20
    22   1     0.15  -0.13   0.21    -0.19  -0.01  -0.15    -0.17   0.12   0.20
    23   1    -0.19   0.03  -0.18    -0.02  -0.05   0.01    -0.30   0.22   0.35
    24   1     0.19  -0.03   0.18     0.02   0.05  -0.01    -0.30   0.22   0.35
                     10                     11                     12
                     AG                     AU                     AG
 Frequencies --    480.9196               504.5176               537.9977
 Red. masses --      2.8109                 3.5735                 6.2428
 Frc consts  --      0.3830                 0.5359                 1.0646
 IR Inten    --      0.0000                 0.0000                 0.0000
  Atom  AN      X      Y      Z        X      Y      Z        X      Y      Z
     1   6    -0.09   0.07   0.11    -0.09   0.06   0.10     0.06  -0.13   0.13
     2   6     0.09  -0.07  -0.11    -0.09   0.06   0.10    -0.06   0.13  -0.13
     3   6     0.07  -0.05  -0.08    -0.06   0.04   0.07     0.08   0.02   0.05
     4   6    -0.07   0.05   0.08    -0.06   0.04   0.07    -0.08  -0.02  -0.05
     5   6    -0.03   0.03   0.04     0.09  -0.07  -0.11     0.15   0.12   0.05
     6   6     0.03  -0.03  -0.04     0.09  -0.07  -0.11    -0.15  -0.12  -0.05
     7   6    -0.03   0.03   0.04    -0.09   0.07   0.11    -0.03   0.15  -0.12
     8   6     0.03  -0.03  -0.04    -0.09   0.07   0.11     0.03  -0.15   0.12
     9   6     0.07  -0.05  -0.08     0.06  -0.04  -0.07    -0.05   0.05  -0.07
    10   6    -0.07   0.05   0.08     0.06  -0.04  -0.07     0.05  -0.05   0.07
    11   6    -0.09   0.07   0.11     0.09  -0.06  -0.10    -0.15  -0.09  -0.07
    12   6     0.09  -0.07  -0.11     0.09  -0.06  -0.10     0.15   0.09   0.07
    13   6    -0.00  -0.00   0.00    -0.00   0.00   0.00     0.18  -0.03   0.17
    14   6     0.00   0.00  -0.00    -0.00   0.00   0.00    -0.18   0.03  -0.17
    15   1     0.26  -0.20  -0.31    -0.02   0.01   0.02    -0.07   0.05  -0.09
    16   1    -0.26   0.20   0.31    -0.02   0.01   0.02     0.07  -0.05   0.09
    17   1     0.04  -0.03  -0.05     0.25  -0.19  -0.30     0.15   0.04   0.10
    18   1    -0.04   0.03   0.05     0.25  -0.19  -0.30    -0.15  -0.04  -0.10
    19   1     0.04  -0.03  -0.05    -0.25   0.19   0.30    -0.10   0.08  -0.13
    20   1    -0.04   0.03   0.05    -0.25   0.19   0.30     0.10  -0.08   0.13
    21   1     0.26  -0.20  -0.31     0.02  -0.01  -0.02     0.10   0.02   0.07
    22   1    -0.26   0.20   0.31     0.02  -0.01  -0.02    -0.10  -0.02  -0.07
    23   1    -0.00   0.00   0.00    -0.00   0.00   0.00     0.29  -0.05   0.27
    24   1     0.00  -0.00  -0.00    -0.00   0.00   0.00    -0.29   0.05  -0.27
                     13                     14                     15
                     AG                     AU                     AG
 Frequencies --    590.1684               620.6609               645.8770
 Red. masses --      3.4154                 6.8031                 6.6574
 Frc consts  --      0.7009                 1.5441                 1.6363
 IR Inten    --      0.0000                 8.2261                 0.0000
  Atom  AN      X      Y      Z        X      Y      Z        X      Y      Z
     1   6    -0.04   0.03   0.04     0.11   0.02   0.08    -0.11   0.02  -0.10
     2   6     0.04  -0.03  -0.04     0.11   0.02   0.08     0.11  -0.02   0.10
     3   6    -0.08   0.06   0.09     0.09   0.23  -0.07    -0.12  -0.21   0.03
     4   6     0.08  -0.06  -0.09     0.09   0.23  -0.07     0.12   0.21  -0.03
     5   6     0.09  -0.07  -0.11    -0.13   0.05  -0.14     0.05  -0.04   0.07
     6   6    -0.09   0.07   0.11    -0.13   0.05  -0.14    -0.05   0.04  -0.07
     7   6    -0.09   0.07   0.11    -0.15   0.00  -0.12     0.08   0.01   0.05
     8   6     0.09  -0.07  -0.11    -0.15   0.00  -0.12    -0.08  -0.01  -0.05
     9   6     0.08  -0.06  -0.09    -0.11  -0.23   0.05     0.06   0.22  -0.08
    10   6    -0.08   0.06   0.09    -0.11  -0.23   0.05    -0.06  -0.22   0.08
    11   6     0.04  -0.03  -0.04     0.08  -0.05   0.10    -0.11   0.01  -0.10
    12   6    -0.04   0.03   0.04     0.08  -0.05   0.10     0.11  -0.01   0.10
    13   6     0.07  -0.06  -0.09     0.10  -0.02   0.10     0.11   0.24  -0.07
    14   6    -0.07   0.06   0.09     0.10  -0.02   0.10    -0.11  -0.24   0.07
    15   1    -0.08   0.06   0.09     0.09   0.23  -0.07    -0.13  -0.21   0.02
    16   1     0.08  -0.06  -0.09     0.09   0.23  -0.07     0.13   0.21  -0.02
    17   1     0.22  -0.17  -0.26    -0.12  -0.16  -0.01     0.05   0.14  -0.05
    18   1    -0.22   0.17   0.26    -0.12  -0.16  -0.01    -0.05  -0.14   0.05
    19   1    -0.22   0.17   0.26     0.02   0.17  -0.09    -0.07  -0.14   0.03
    20   1     0.22  -0.17  -0.26     0.02   0.17  -0.09     0.07   0.14  -0.03
    21   1     0.08  -0.06  -0.09    -0.10  -0.23   0.06     0.06   0.22  -0.09
    22   1    -0.08   0.06   0.09    -0.10  -0.23   0.06    -0.06  -0.22   0.09
    23   1     0.14  -0.11  -0.17     0.12  -0.02   0.11     0.11   0.24  -0.06
    24   1    -0.14   0.11   0.17     0.12  -0.02   0.11    -0.11  -0.24   0.06
                     16                     17                     18
                     AU                     AU                     AU
 Frequencies --    664.3990               732.2652               755.2098
 Red. masses --      6.0512                 1.1926                 3.7065
 Frc consts  --      1.5738                 0.3768                 1.2455
 IR Inten    --      0.6248                84.3781                 0.0000
  Atom  AN      X      Y      Z        X      Y      Z        X      Y      Z
     1   6     0.05  -0.06   0.08    -0.01   0.01   0.01     0.12  -0.09  -0.14
     2   6     0.05  -0.06   0.08    -0.01   0.01   0.01     0.12  -0.09  -0.14
     3   6     0.15   0.04   0.10     0.03  -0.02  -0.03    -0.04   0.03   0.05
     4   6     0.15   0.04   0.10     0.03  -0.02  -0.03    -0.04   0.03   0.05
     5   6     0.18   0.06   0.12     0.02  -0.01  -0.02     0.07  -0.05  -0.09
     6   6     0.18   0.06   0.12     0.02  -0.01  -0.02     0.07  -0.05  -0.09
     7   6    -0.11   0.11  -0.16     0.02  -0.01  -0.02    -0.07   0.05   0.09
     8   6    -0.11   0.11  -0.16     0.02  -0.01  -0.02    -0.07   0.05   0.09
     9   6    -0.10   0.08  -0.14     0.03  -0.02  -0.03     0.04  -0.03  -0.05
    10   6    -0.10   0.08  -0.14     0.03  -0.02  -0.03     0.04  -0.03  -0.05
    11   6    -0.10  -0.04  -0.06    -0.01   0.01   0.01    -0.12   0.09   0.14
    12   6    -0.10  -0.04  -0.06    -0.01   0.01   0.01    -0.12   0.09   0.14
    13   6    -0.07  -0.16   0.04    -0.02   0.01   0.02    -0.00   0.00   0.00
    14   6    -0.07  -0.16   0.04    -0.02   0.01   0.02    -0.00   0.00   0.00
    15   1     0.07   0.05   0.03    -0.17   0.13   0.20    -0.25   0.19   0.30
    16   1     0.07   0.05   0.03    -0.17   0.13   0.20    -0.25   0.19   0.30
    17   1     0.18  -0.14   0.24    -0.21   0.15   0.25     0.01  -0.01  -0.01
    18   1     0.18  -0.14   0.24    -0.21   0.15   0.25     0.01  -0.01  -0.01
    19   1    -0.27  -0.06  -0.19    -0.21   0.15   0.25    -0.01   0.01   0.01
    20   1    -0.27  -0.06  -0.19    -0.21   0.15   0.25    -0.01   0.01   0.01
    21   1    -0.02   0.07  -0.06    -0.17   0.13   0.20     0.25  -0.19  -0.30
    22   1    -0.02   0.07  -0.06    -0.17   0.13   0.20     0.25  -0.19  -0.30
    23   1    -0.07  -0.16   0.04     0.15  -0.11  -0.18     0.00  -0.00  -0.00
    24   1    -0.07  -0.16   0.04     0.15  -0.11  -0.18     0.00  -0.00  -0.00
                     19                     20                     21
                     AG                     AG                     AG
 Frequencies --    763.0335               769.1447               778.1453
 Red. masses --      1.3491                 5.6209                 2.6856
 Frc consts  --      0.4628                 1.9592                 0.9581
 IR Inten    --      0.0000                 0.0000                 0.0000
  Atom  AN      X      Y      Z        X      Y      Z        X      Y      Z
     1   6    -0.03   0.02   0.04     0.05   0.12  -0.04     0.10  -0.08  -0.12
     2   6     0.03  -0.02  -0.04    -0.05  -0.12   0.04    -0.10   0.08   0.12
     3   6     0.03  -0.03  -0.04     0.12   0.14   0.01    -0.02   0.01   0.02
     4   6    -0.03   0.03   0.04    -0.12  -0.14  -0.01     0.02  -0.01  -0.02
     5   6     0.02  -0.02  -0.03     0.00   0.01  -0.00     0.05  -0.03  -0.05
     6   6    -0.02   0.02   0.03    -0.00  -0.01   0.00    -0.05   0.03   0.05
     7   6     0.02  -0.02  -0.03    -0.01  -0.01   0.00    -0.05   0.03   0.05
     8   6    -0.02   0.02   0.03     0.01   0.01  -0.00     0.05  -0.03  -0.05
     9   6     0.03  -0.03  -0.04    -0.01  -0.16   0.09     0.02  -0.01  -0.02
    10   6    -0.03   0.03   0.04     0.01   0.16  -0.09    -0.02   0.01   0.02
    11   6    -0.03   0.02   0.04    -0.06  -0.12   0.03    -0.10   0.08   0.12
    12   6     0.03  -0.02  -0.04     0.06   0.12  -0.03     0.10  -0.08  -0.12
    13   6    -0.00  -0.00   0.00     0.12   0.29  -0.08    -0.02   0.01   0.02
    14   6     0.00   0.00  -0.00    -0.12  -0.29   0.08     0.02  -0.01  -0.02
    15   1    -0.16   0.12   0.19     0.21   0.13   0.09    -0.17   0.13   0.20
    16   1     0.16  -0.12  -0.19    -0.21  -0.13  -0.09     0.17  -0.13  -0.20
    17   1    -0.23   0.18   0.28     0.01  -0.12   0.08    -0.02   0.01   0.02
    18   1     0.23  -0.18  -0.28    -0.01   0.12  -0.08     0.02  -0.01  -0.02
    19   1    -0.23   0.18   0.28     0.10   0.10   0.02     0.02  -0.01  -0.02
    20   1     0.23  -0.18  -0.28    -0.10  -0.10  -0.02    -0.02   0.01   0.02
    21   1    -0.16   0.12   0.19     0.07  -0.18   0.17     0.17  -0.13  -0.20
    22   1     0.16  -0.12  -0.19    -0.07   0.18  -0.17    -0.17   0.13   0.20
    23   1     0.00  -0.00  -0.00     0.13   0.30  -0.08    -0.29   0.22   0.34
    24   1    -0.00   0.00   0.00    -0.13  -0.30   0.08     0.29  -0.22  -0.34
                     22                     23                     24
                     AU                     AG                     AU
 Frequencies --    827.8057               835.3332               858.7064
 Red. masses --      3.6773                 1.2629                 1.5761
 Frc consts  --      1.4847                 0.5192                 0.6848
 IR Inten    --      0.0279                 0.0000                 0.0000
  Atom  AN      X      Y      Z        X      Y      Z        X      Y      Z
     1   6     0.01  -0.10   0.07     0.01  -0.01  -0.02    -0.04   0.03   0.05
     2   6     0.01  -0.10   0.07    -0.01   0.01   0.02    -0.04   0.03   0.05
     3   6    -0.11  -0.10  -0.03    -0.03   0.02   0.03     0.05  -0.03  -0.05
     4   6    -0.11  -0.10  -0.03     0.03  -0.02  -0.03     0.05  -0.03  -0.05
     5   6    -0.06  -0.02  -0.04    -0.03   0.02   0.03     0.03  -0.02  -0.03
     6   6    -0.06  -0.02  -0.04     0.03  -0.02  -0.03     0.03  -0.02  -0.03
     7   6    -0.04   0.04  -0.06     0.03  -0.02  -0.03    -0.03   0.02   0.03
     8   6    -0.04   0.04  -0.06    -0.03   0.02   0.03    -0.03   0.02   0.03
     9   6    -0.01   0.12  -0.09     0.03  -0.02  -0.03    -0.05   0.03   0.05
    10   6    -0.01   0.12  -0.09    -0.03   0.02   0.03    -0.05   0.03   0.05
    11   6     0.09   0.08   0.02    -0.01   0.01   0.02     0.04  -0.03  -0.05
    12   6     0.09   0.08   0.02     0.01  -0.01  -0.02     0.04  -0.03  -0.05
    13   6     0.13  -0.02   0.12     0.02  -0.02  -0.03    -0.00   0.00   0.00
    14   6     0.13  -0.02   0.12    -0.02   0.02   0.03    -0.00   0.00   0.00
    15   1    -0.20  -0.09  -0.11     0.20  -0.15  -0.24    -0.22   0.17   0.27
    16   1    -0.20  -0.09  -0.11    -0.20   0.15   0.24    -0.22   0.17   0.27
    17   1    -0.07   0.05  -0.09     0.12  -0.09  -0.15    -0.17   0.13   0.20
    18   1    -0.07   0.05  -0.09    -0.12   0.09   0.15    -0.17   0.13   0.20
    19   1    -0.10  -0.02  -0.07    -0.12   0.09   0.15     0.17  -0.13  -0.20
    20   1    -0.10  -0.02  -0.07     0.12  -0.09  -0.15     0.17  -0.13  -0.20
    21   1    -0.09   0.15  -0.17    -0.20   0.15   0.24     0.22  -0.17  -0.27
    22   1    -0.09   0.15  -0.17     0.20  -0.15  -0.24     0.22  -0.17  -0.27
    23   1     0.34  -0.06   0.33    -0.23   0.17   0.27     0.00  -0.00  -0.00
    24   1     0.34  -0.06   0.33     0.23  -0.17  -0.27     0.00  -0.00  -0.00
                     25                     26                     27
                     AU                     AG                     AU
 Frequencies --    880.9789               907.0137               923.3840
 Red. masses --      1.4566                 1.7874                 5.5432
 Frc consts  --      0.6661                 0.8664                 2.7847
 IR Inten    --     67.5435                 0.0000                 1.7640
  Atom  AN      X      Y      Z        X      Y      Z        X      Y      Z
     1   6    -0.03   0.02   0.04    -0.05   0.04   0.06    -0.04  -0.02  -0.02
     2   6    -0.03   0.02   0.04     0.05  -0.04  -0.06    -0.04  -0.02  -0.02
     3   6     0.00  -0.00  -0.01     0.03  -0.02  -0.03    -0.08  -0.18   0.04
     4   6     0.00  -0.00  -0.01    -0.03   0.02   0.03    -0.08  -0.18   0.04
     5   6     0.02  -0.01  -0.02     0.01  -0.01  -0.02     0.15   0.08   0.07
     6   6     0.02  -0.01  -0.02    -0.01   0.01   0.02     0.15   0.08   0.07
     7   6     0.02  -0.01  -0.02    -0.01   0.01   0.02    -0.06   0.12  -0.13
     8   6     0.02  -0.01  -0.02     0.01  -0.01  -0.02    -0.06   0.12  -0.13
     9   6     0.00  -0.00  -0.01    -0.03   0.02   0.03    -0.07  -0.18   0.05
    10   6     0.00  -0.00  -0.01     0.03  -0.02  -0.03    -0.07  -0.18   0.05
    11   6    -0.03   0.02   0.04     0.05  -0.04  -0.06     0.02  -0.04   0.04
    12   6    -0.03   0.02   0.04    -0.05   0.04   0.06     0.02  -0.04   0.04
    13   6     0.07  -0.05  -0.08     0.07  -0.06  -0.09     0.09   0.21  -0.06
    14   6     0.07  -0.05  -0.08    -0.07   0.06   0.09     0.09   0.21  -0.06
    15   1     0.01  -0.01  -0.02    -0.07   0.06   0.09    -0.23  -0.15  -0.10
    16   1     0.01  -0.01  -0.02     0.07  -0.06  -0.09    -0.23  -0.15  -0.10
    17   1    -0.13   0.10   0.15    -0.11   0.09   0.14     0.15   0.10   0.06
    18   1    -0.13   0.10   0.15     0.11  -0.09  -0.14     0.15   0.10   0.06
    19   1    -0.13   0.10   0.15     0.11  -0.09  -0.14    -0.05   0.13  -0.12
    20   1    -0.13   0.10   0.15    -0.11   0.09   0.14    -0.05   0.13  -0.12
    21   1     0.01  -0.01  -0.02     0.08  -0.06  -0.09     0.08  -0.20   0.19
    22   1     0.01  -0.01  -0.02    -0.08   0.06   0.09     0.08  -0.20   0.19
    23   1    -0.36   0.27   0.43    -0.34   0.26   0.41     0.09   0.21  -0.06
    24   1    -0.36   0.27   0.43     0.34  -0.26  -0.41     0.09   0.21  -0.06
                     28                     29                     30
                     AG                     AG                     AU
 Frequencies --    933.8550               947.9687               952.5055
 Red. masses --      5.4384                 1.3184                 1.3515
 Frc consts  --      2.7943                 0.6980                 0.7224
 IR Inten    --      0.0000                 0.0000                 4.5728
  Atom  AN      X      Y      Z        X      Y      Z        X      Y      Z
     1   6    -0.08  -0.00  -0.07    -0.01   0.00   0.01    -0.01   0.01   0.01
     2   6     0.08   0.00   0.07     0.01  -0.00  -0.01    -0.01   0.01   0.01
     3   6    -0.02  -0.12   0.06     0.04  -0.03  -0.04     0.04  -0.03  -0.05
     4   6     0.02   0.12  -0.06    -0.04   0.03   0.04     0.04  -0.03  -0.05
     5   6     0.18   0.06   0.12    -0.03   0.02   0.04    -0.03   0.02   0.03
     6   6    -0.18  -0.06  -0.12     0.03  -0.02  -0.04    -0.03   0.02   0.03
     7   6    -0.11   0.11  -0.16    -0.03   0.02   0.04    -0.03   0.02   0.03
     8   6     0.11  -0.11   0.16     0.03  -0.02  -0.04    -0.03   0.02   0.03
     9   6    -0.08  -0.12   0.01     0.04  -0.03  -0.04     0.04  -0.03  -0.05
    10   6     0.08   0.12  -0.01    -0.04   0.03   0.04     0.04  -0.03  -0.05
    11   6     0.07  -0.03   0.07    -0.01   0.00   0.01    -0.01   0.01   0.01
    12   6    -0.07   0.03  -0.07     0.01  -0.00  -0.01    -0.01   0.01   0.01
    13   6    -0.14   0.03  -0.13    -0.00   0.00  -0.00     0.02  -0.01  -0.02
    14   6     0.14  -0.03   0.13     0.00  -0.00   0.00     0.02  -0.01  -0.02
    15   1    -0.12  -0.11  -0.04    -0.21   0.16   0.26    -0.22   0.16   0.26
    16   1     0.12   0.11   0.04     0.21  -0.16  -0.26    -0.22   0.16   0.26
    17   1     0.19  -0.05   0.19     0.19  -0.14  -0.22     0.17  -0.13  -0.21
    18   1    -0.19   0.05  -0.19    -0.19   0.14   0.22     0.17  -0.13  -0.21
    19   1    -0.20   0.02  -0.18     0.19  -0.14  -0.22     0.17  -0.13  -0.21
    20   1     0.20  -0.02   0.18    -0.19   0.14   0.22     0.17  -0.13  -0.21
    21   1     0.02  -0.13   0.10    -0.21   0.16   0.26    -0.22   0.16   0.26
    22   1    -0.02   0.13  -0.10     0.21  -0.16  -0.26    -0.22   0.16   0.26
    23   1    -0.22   0.04  -0.21    -0.00   0.00  -0.00    -0.09   0.07   0.11
    24   1     0.22  -0.04   0.21     0.00  -0.00   0.00    -0.09   0.07   0.11
                     31                     32                     33
                     AU                     AG                     AU
 Frequencies --    979.1593               980.6073              1030.7506
 Red. masses --      1.2843                 1.2976                 2.3187
 Frc consts  --      0.7255                 0.7352                 1.4514
 IR Inten    --      0.0000                 0.0000                 6.4081
  Atom  AN      X      Y      Z        X      Y      Z        X      Y      Z
     1   6    -0.00   0.00   0.00     0.00  -0.00  -0.00     0.03   0.03   0.01
     2   6    -0.00   0.00   0.00    -0.00   0.00   0.00     0.03   0.03   0.01
     3   6    -0.03   0.02   0.03    -0.03   0.02   0.03     0.01  -0.06   0.04
     4   6    -0.03   0.02   0.03     0.03  -0.02  -0.03     0.01  -0.06   0.04
     5   6     0.04  -0.03  -0.05     0.04  -0.03  -0.04    -0.10  -0.11  -0.02
     6   6     0.04  -0.03  -0.05    -0.04   0.03   0.04    -0.10  -0.11  -0.02
     7   6    -0.04   0.03   0.05    -0.04   0.03   0.04    -0.00   0.13  -0.08
     8   6    -0.04   0.03   0.05     0.04  -0.03  -0.04    -0.00   0.13  -0.08
     9   6     0.03  -0.02  -0.03     0.03  -0.02  -0.03     0.05   0.05   0.01
    10   6     0.03  -0.02  -0.03    -0.03   0.02   0.03     0.05   0.05   0.01
    11   6     0.00  -0.00  -0.00    -0.00   0.00   0.00     0.00  -0.03   0.02
    12   6     0.00  -0.00  -0.00     0.00  -0.00  -0.00     0.00  -0.03   0.02
    13   6    -0.00   0.00   0.00    -0.01   0.01   0.01    -0.02   0.00  -0.02
    14   6    -0.00   0.00   0.00     0.01  -0.01  -0.01    -0.02   0.00  -0.02
    15   1     0.17  -0.13  -0.20     0.17  -0.13  -0.21     0.22  -0.10   0.25
    16   1     0.17  -0.13  -0.20    -0.17   0.13   0.21     0.22  -0.10   0.25
    17   1    -0.23   0.17   0.27    -0.23   0.17   0.27    -0.11  -0.26   0.07
    18   1    -0.23   0.17   0.27     0.23  -0.17  -0.27    -0.11  -0.26   0.07
    19   1     0.23  -0.17  -0.27     0.23  -0.17  -0.27     0.12   0.26  -0.07
    20   1     0.23  -0.17  -0.27    -0.23   0.17   0.27     0.12   0.26  -0.07
    21   1    -0.17   0.13   0.20    -0.17   0.13   0.21     0.27   0.01   0.22
    22   1    -0.17   0.13   0.20     0.17  -0.13  -0.21     0.27   0.01   0.22
    23   1     0.00  -0.00  -0.00     0.03  -0.02  -0.04    -0.12   0.02  -0.11
    24   1     0.00  -0.00  -0.00    -0.03   0.02   0.04    -0.12   0.02  -0.11
                     34                     35                     36
                     AG                     AG                     AU
 Frequencies --   1035.1730              1131.4836              1164.9681
 Red. masses --      2.4053                 2.1763                 1.4282
 Frc consts  --      1.5186                 1.6416                 1.1420
 IR Inten    --      0.0000                 0.0000                 1.7224
  Atom  AN      X      Y      Z        X      Y      Z        X      Y      Z
     1   6     0.03   0.01   0.02    -0.07  -0.06  -0.02    -0.05   0.02  -0.05
     2   6    -0.03  -0.01  -0.02     0.07   0.06   0.02    -0.05   0.02  -0.05
     3   6     0.01  -0.06   0.05     0.04   0.10  -0.03     0.03  -0.01   0.03
     4   6    -0.01   0.06  -0.05    -0.04  -0.10   0.03     0.03  -0.01   0.03
     5   6    -0.11  -0.11  -0.03     0.00  -0.04   0.02    -0.01   0.03  -0.03
     6   6     0.11   0.11   0.03    -0.00   0.04  -0.02    -0.01   0.03  -0.03
     7   6    -0.01   0.13  -0.09    -0.03  -0.03  -0.01    -0.03  -0.02  -0.01
     8   6     0.01  -0.13   0.09     0.03   0.03   0.01    -0.03  -0.02  -0.01
     9   6     0.06   0.05   0.02     0.05   0.10  -0.02     0.03  -0.00   0.03
    10   6    -0.06  -0.05  -0.02    -0.05  -0.10   0.02     0.03  -0.00   0.03
    11   6     0.01  -0.02   0.02     0.01  -0.08   0.06    -0.05  -0.00  -0.04
    12   6    -0.01   0.02  -0.02    -0.01   0.08  -0.06    -0.05  -0.00  -0.04
    13   6    -0.00  -0.01   0.00    -0.04   0.01  -0.04     0.04  -0.01   0.04
    14   6     0.00   0.01  -0.00     0.04  -0.01   0.04     0.04  -0.01   0.04
    15   1     0.22  -0.11   0.26    -0.03   0.12  -0.10     0.24  -0.04   0.23
    16   1    -0.22   0.11  -0.26     0.03  -0.12   0.10     0.24  -0.04   0.23
    17   1    -0.12  -0.27   0.07     0.01  -0.36   0.23    -0.01   0.21  -0.14
    18   1     0.12   0.27  -0.07    -0.01   0.36  -0.23    -0.01   0.21  -0.14
    19   1     0.12   0.27  -0.07    -0.29  -0.30  -0.06    -0.18  -0.17  -0.04
    20   1    -0.12  -0.27   0.07     0.29   0.30   0.06    -0.18  -0.17  -0.04
    21   1     0.28   0.02   0.22     0.12   0.10   0.04     0.25  -0.04   0.23
    22   1    -0.28  -0.02  -0.22    -0.12  -0.10  -0.04     0.25  -0.04   0.23
    23   1    -0.00  -0.01   0.00     0.13  -0.02   0.12     0.25  -0.05   0.24
    24   1     0.00   0.01  -0.00    -0.13   0.02  -0.12     0.25  -0.05   0.24
                     37                     38                     39
                     AU                     AU                     AG
 Frequencies --   1177.9140              1195.7787              1196.1270
 Red. masses --      1.3682                 1.3305                 1.0679
 Frc consts  --      1.1185                 1.1209                 0.9002
 IR Inten    --      6.9905                 1.7853                 0.0000
  Atom  AN      X      Y      Z        X      Y      Z        X      Y      Z
     1   6     0.03   0.03   0.01     0.06   0.03   0.03     0.01   0.01  -0.00
     2   6     0.03   0.03   0.01     0.06   0.03   0.03    -0.01  -0.01   0.00
     3   6     0.00  -0.05   0.04    -0.02  -0.02  -0.01     0.00  -0.01   0.01
     4   6     0.00  -0.05   0.04    -0.02  -0.02  -0.01    -0.00   0.01  -0.01
     5   6    -0.00   0.03  -0.02    -0.01   0.01  -0.01    -0.01   0.02  -0.02
     6   6    -0.00   0.03  -0.02    -0.01   0.01  -0.01     0.01  -0.02   0.02
     7   6     0.02   0.02   0.01    -0.01  -0.00  -0.01    -0.02  -0.01  -0.01
     8   6     0.02   0.02   0.01    -0.01  -0.00  -0.01     0.02   0.01   0.01
     9   6    -0.05  -0.05  -0.01    -0.00   0.02  -0.02     0.01   0.00   0.01
    10   6    -0.05  -0.05  -0.01    -0.00   0.02  -0.02    -0.01  -0.00  -0.01
    11   6    -0.00   0.03  -0.02     0.03  -0.05   0.05    -0.00  -0.02   0.01
    12   6    -0.00   0.03  -0.02     0.03  -0.05   0.05     0.00   0.02  -0.01
    13   6    -0.02  -0.04   0.01    -0.00   0.00  -0.00    -0.00  -0.01   0.00
    14   6    -0.02  -0.04   0.01    -0.00   0.00  -0.00     0.00   0.01  -0.00
    15   1     0.20  -0.09   0.23     0.03  -0.03   0.05     0.20  -0.04   0.20
    16   1     0.20  -0.09   0.23     0.03  -0.03   0.05    -0.20   0.04  -0.20
    17   1    -0.01   0.31  -0.20    -0.02   0.33  -0.22    -0.02   0.34  -0.23
    18   1    -0.01   0.31  -0.20    -0.02   0.33  -0.22     0.02  -0.34   0.23
    19   1     0.26   0.26   0.05    -0.28  -0.27  -0.06    -0.29  -0.29  -0.06
    20   1     0.26   0.26   0.05    -0.28  -0.27  -0.06     0.29   0.29   0.06
    21   1    -0.25  -0.01  -0.20     0.05   0.02   0.04     0.21  -0.03   0.19
    22   1    -0.25  -0.01  -0.20     0.05   0.02   0.04    -0.21   0.03  -0.19
    23   1    -0.02  -0.05   0.01    -0.29   0.05  -0.28    -0.00  -0.01   0.00
    24   1    -0.02  -0.05   0.01    -0.29   0.05  -0.28     0.00   0.01  -0.00
                     40                     41                     42
                     AG                     AU                     AG
 Frequencies --   1217.4567              1298.2647              1298.6349
 Red. masses --      1.2249                 1.9855                 2.9576
 Frc consts  --      1.0697                 1.9717                 2.9388
 IR Inten    --      0.0000                 6.6026                 0.0000
  Atom  AN      X      Y      Z        X      Y      Z        X      Y      Z
     1   6    -0.05  -0.01  -0.03     0.09   0.09   0.02     0.15   0.02   0.11
     2   6     0.05   0.01   0.03     0.09   0.09   0.02    -0.15  -0.02  -0.11
     3   6     0.02   0.00   0.02    -0.02  -0.04   0.01    -0.03  -0.04   0.00
     4   6    -0.02  -0.00  -0.02    -0.02  -0.04   0.01     0.03   0.04  -0.00
     5   6     0.01   0.02  -0.01    -0.00  -0.02   0.01    -0.03  -0.03  -0.01
     6   6    -0.01  -0.02   0.01    -0.00  -0.02   0.01     0.03   0.03   0.01
     7   6     0.01   0.02  -0.00    -0.01  -0.02  -0.00    -0.01   0.04  -0.03
     8   6    -0.01  -0.02   0.00    -0.01  -0.02  -0.00     0.01  -0.04   0.03
     9   6    -0.02   0.01  -0.02    -0.01  -0.04   0.01     0.01   0.04  -0.02
    10   6     0.02  -0.01   0.02    -0.01  -0.04   0.01    -0.01  -0.04   0.02
    11   6     0.03  -0.03   0.04    -0.00   0.11  -0.07     0.11  -0.07   0.14
    12   6    -0.03   0.03  -0.04    -0.00   0.11  -0.07    -0.11   0.07  -0.14
    13   6    -0.01   0.00  -0.01    -0.03  -0.08   0.02     0.03   0.07  -0.02
    14   6     0.01  -0.00   0.01    -0.03  -0.08   0.02    -0.03  -0.07   0.02
    15   1     0.30  -0.04   0.28    -0.35   0.02  -0.30    -0.30  -0.00  -0.25
    16   1    -0.30   0.04  -0.28    -0.35   0.02  -0.30     0.30   0.00   0.25
    17   1     0.00   0.11  -0.07    -0.00   0.08  -0.05    -0.04   0.17  -0.15
    18   1    -0.00  -0.11   0.07    -0.00   0.08  -0.05     0.04  -0.17   0.15
    19   1     0.09   0.10   0.01     0.07   0.06   0.01    -0.18  -0.13  -0.06
    20   1    -0.09  -0.10  -0.01     0.07   0.06   0.01     0.18   0.13   0.06
    21   1    -0.29   0.06  -0.28     0.31  -0.10   0.33    -0.25   0.10  -0.27
    22   1     0.29  -0.06   0.28     0.31  -0.10   0.33     0.25  -0.10   0.27
    23   1     0.25  -0.05   0.24    -0.03  -0.08   0.02     0.04   0.09  -0.02
    24   1    -0.25   0.05  -0.24    -0.03  -0.08   0.02    -0.04  -0.09   0.02
                     43                     44                     45
                     AG                     AU                     AU
 Frequencies --   1305.7965              1345.9484              1384.7157
 Red. masses --      1.4715                 3.1812                 3.1721
 Frc consts  --      1.4783                 3.3955                 3.5836
 IR Inten    --      0.0000                 5.2704                 5.6373
  Atom  AN      X      Y      Z        X      Y      Z        X      Y      Z
     1   6     0.02   0.08  -0.04    -0.05   0.11  -0.11    -0.02   0.10  -0.08
     2   6    -0.02  -0.08   0.04    -0.05   0.11  -0.11    -0.02   0.10  -0.08
     3   6    -0.03  -0.02  -0.01    -0.07  -0.03  -0.04     0.02  -0.06   0.05
     4   6     0.03   0.02   0.01    -0.07  -0.03  -0.04     0.02  -0.06   0.05
     5   6     0.01  -0.00   0.01     0.05   0.03   0.02    -0.01   0.06  -0.04
     6   6    -0.01   0.00  -0.01     0.05   0.03   0.02    -0.01   0.06  -0.04
     7   6    -0.01   0.00  -0.01    -0.02   0.04  -0.04    -0.05  -0.05  -0.01
     8   6     0.01  -0.00   0.01    -0.02   0.04  -0.04    -0.05  -0.05  -0.01
     9   6     0.01  -0.03   0.02     0.04  -0.05   0.07     0.06   0.04   0.03
    10   6    -0.01   0.03  -0.02     0.04  -0.05   0.07     0.06   0.04   0.03
    11   6     0.05   0.08  -0.01     0.13   0.08   0.06    -0.10  -0.08  -0.03
    12   6    -0.05  -0.08   0.01     0.13   0.08   0.06    -0.10  -0.08  -0.03
    13   6     0.02  -0.00   0.02    -0.05  -0.12   0.03     0.14  -0.03   0.14
    14   6    -0.02   0.00  -0.02    -0.05  -0.12   0.03     0.14  -0.03   0.14
    15   1    -0.14  -0.00  -0.12     0.16  -0.07   0.18    -0.21  -0.02  -0.16
    16   1     0.14   0.00   0.12     0.16  -0.07   0.18    -0.21  -0.02  -0.16
    17   1     0.01  -0.06   0.05     0.06  -0.27   0.22    -0.01  -0.16   0.10
    18   1    -0.01   0.06  -0.05     0.06  -0.27   0.22    -0.01  -0.16   0.10
    19   1    -0.06  -0.05  -0.02    -0.27  -0.22  -0.09     0.13   0.14   0.02
    20   1     0.06   0.05   0.02    -0.27  -0.22  -0.09     0.13   0.14   0.02
    21   1     0.12  -0.05   0.13    -0.19  -0.00  -0.16    -0.16   0.09  -0.19
    22   1    -0.12   0.05  -0.13    -0.19  -0.00  -0.16    -0.16   0.09  -0.19
    23   1     0.45  -0.08   0.43    -0.06  -0.14   0.04    -0.32   0.06  -0.30
    24   1    -0.45   0.08  -0.43    -0.06  -0.14   0.04    -0.32   0.06  -0.30
                     46                     47                     48
                     AU                     AG                     AG
 Frequencies --   1422.2556              1422.4335              1433.5502
 Red. masses --      4.1982                 1.5556                 9.5282
 Frc consts  --      5.0035                 1.8545                11.5368
 IR Inten    --      0.6293                 0.0000                 0.0000
  Atom  AN      X      Y      Z        X      Y      Z        X      Y      Z
     1   6    -0.09  -0.19   0.05    -0.02  -0.02  -0.00     0.10   0.25  -0.08
     2   6    -0.09  -0.19   0.05     0.02   0.02   0.00    -0.10  -0.25   0.08
     3   6     0.08  -0.01   0.08     0.07   0.02   0.04    -0.16   0.06  -0.17
     4   6     0.08  -0.01   0.08    -0.07  -0.02  -0.04     0.16  -0.06   0.17
     5   6    -0.02   0.08  -0.07    -0.00  -0.05   0.03     0.06  -0.14   0.14
     6   6    -0.02   0.08  -0.07     0.00   0.05  -0.03    -0.06   0.14  -0.14
     7   6    -0.09  -0.06  -0.03    -0.04  -0.05  -0.00     0.17   0.10   0.08
     8   6    -0.09  -0.06  -0.03     0.04   0.05   0.00    -0.17  -0.10  -0.08
     9   6     0.08  -0.02   0.08    -0.04   0.04  -0.06    -0.18   0.00  -0.16
    10   6     0.08  -0.02   0.08     0.04  -0.04   0.06     0.18  -0.00   0.16
    11   6     0.08   0.19  -0.06     0.00  -0.02   0.01    -0.12  -0.25   0.06
    12   6     0.08   0.19  -0.06    -0.00   0.02  -0.01     0.12   0.25  -0.06
    13   6    -0.02   0.00  -0.02    -0.04   0.01  -0.04    -0.06  -0.14   0.04
    14   6    -0.02   0.00  -0.02     0.04  -0.01   0.04     0.06   0.14  -0.04
    15   1     0.06  -0.02   0.06    -0.18   0.07  -0.20     0.14   0.01   0.11
    16   1     0.06  -0.02   0.06     0.18  -0.07   0.20    -0.14  -0.01  -0.11
    17   1    -0.03  -0.03  -0.00    -0.01   0.33  -0.22     0.07   0.00   0.06
    18   1    -0.03  -0.03  -0.00     0.01  -0.33   0.22    -0.07  -0.00  -0.06
    19   1    -0.00   0.03  -0.02     0.27   0.28   0.05     0.06  -0.03   0.07
    20   1    -0.00   0.03  -0.02    -0.27  -0.28  -0.05    -0.06   0.03  -0.07
    21   1     0.07  -0.01   0.06     0.21   0.00   0.18     0.11  -0.06   0.13
    22   1     0.07  -0.01   0.06    -0.21  -0.00  -0.18    -0.11   0.06  -0.13
    23   1    -0.42   0.07  -0.40     0.09  -0.02   0.08    -0.06  -0.15   0.04
    24   1    -0.42   0.07  -0.40    -0.09   0.02  -0.08     0.06   0.15  -0.04
                     49                     50                     51
                     AU                     AU                     AG
 Frequencies --   1491.9791              1495.1448              1526.0588
 Red. masses --      1.9216                 2.7739                 2.6061
 Frc consts  --      2.5202                 3.6535                 3.5758
 IR Inten    --      2.6244                 2.0405                 0.0000
  Atom  AN      X      Y      Z        X      Y      Z        X      Y      Z
     1   6    -0.00   0.01  -0.01     0.11  -0.01   0.10     0.06  -0.03   0.07
     2   6    -0.00   0.01  -0.01     0.11  -0.01   0.10    -0.06   0.03  -0.07
     3   6     0.08  -0.01   0.08    -0.05  -0.05  -0.01    -0.09  -0.02  -0.06
     4   6     0.08  -0.01   0.08    -0.05  -0.05  -0.01     0.09   0.02   0.06
     5   6    -0.05  -0.06  -0.01    -0.03   0.08  -0.08     0.05   0.11  -0.03
     6   6    -0.05  -0.06  -0.01    -0.03   0.08  -0.08    -0.05  -0.11   0.03
     7   6     0.00   0.07  -0.04     0.09   0.06   0.04    -0.05  -0.11   0.03
     8   6     0.00   0.07  -0.04     0.09   0.06   0.04     0.05   0.11  -0.03
     9   6     0.08  -0.02   0.08     0.00  -0.06   0.04    -0.05   0.05  -0.08
    10   6     0.08  -0.02   0.08     0.00  -0.06   0.04     0.05  -0.05   0.08
    11   6    -0.01  -0.01  -0.00    -0.10   0.03  -0.10     0.07   0.01   0.06
    12   6    -0.01  -0.01  -0.00    -0.10   0.03  -0.10    -0.07  -0.01  -0.06
    13   6    -0.04   0.01  -0.04     0.01   0.02  -0.01     0.02   0.04  -0.01
    14   6    -0.04   0.01  -0.04     0.01   0.02  -0.01    -0.02  -0.04   0.01
    15   1    -0.27   0.05  -0.26     0.09  -0.09   0.13     0.23  -0.09   0.25
    16   1    -0.27   0.05  -0.26     0.09  -0.09   0.13    -0.23   0.09  -0.25
    17   1    -0.07   0.18  -0.17    -0.03  -0.36   0.20     0.06  -0.22   0.19
    18   1    -0.07   0.18  -0.17    -0.03  -0.36   0.20    -0.06   0.22  -0.19
    19   1    -0.20  -0.13  -0.08    -0.27  -0.32  -0.02     0.23   0.17   0.09
    20   1    -0.20  -0.13  -0.08    -0.27  -0.32  -0.02    -0.23  -0.17  -0.09
    21   1    -0.27   0.04  -0.26    -0.15  -0.04  -0.10     0.27  -0.00   0.23
    22   1    -0.27   0.04  -0.26    -0.15  -0.04  -0.10    -0.27   0.00  -0.23
    23   1     0.15  -0.03   0.15     0.01   0.03  -0.01     0.02   0.05  -0.01
    24   1     0.15  -0.03   0.15     0.01   0.03  -0.01    -0.02  -0.05   0.01
                     52                     53                     54
                     AU                     AG                     AG
 Frequencies --   1587.6031              1600.2675              1633.1109
 Red. masses --      4.9247                 7.1314                 5.0354
 Frc consts  --      7.3132                10.7599                 7.9125
 IR Inten    --      5.6947                 0.0000                 0.0000
  Atom  AN      X      Y      Z        X      Y      Z        X      Y      Z
     1   6     0.11   0.06   0.05     0.05   0.22  -0.09    -0.07   0.04  -0.08
     2   6     0.11   0.06   0.05    -0.05  -0.22   0.09     0.07  -0.04   0.08
     3   6    -0.00  -0.10   0.06     0.05  -0.12   0.11    -0.07   0.07  -0.10
     4   6    -0.00  -0.10   0.06    -0.05   0.12  -0.11     0.07  -0.07   0.10
     5   6     0.01   0.17  -0.10    -0.00   0.17  -0.11     0.08  -0.09   0.12
     6   6     0.01   0.17  -0.10     0.00  -0.17   0.11    -0.08   0.09  -0.12
     7   6    -0.13  -0.15  -0.02    -0.14  -0.15  -0.03    -0.14  -0.06  -0.09
     8   6    -0.13  -0.15  -0.02     0.14   0.15   0.03     0.14   0.06   0.09
     9   6     0.07   0.08   0.01     0.13   0.09   0.06     0.12   0.03   0.08
    10   6     0.07   0.08   0.01    -0.13  -0.09  -0.06    -0.12  -0.03  -0.08
    11   6     0.04  -0.09   0.09    -0.13  -0.21   0.02     0.09   0.01   0.07
    12   6     0.04  -0.09   0.09     0.13   0.21  -0.02    -0.09  -0.01  -0.07
    13   6    -0.14   0.02  -0.13    -0.05  -0.11   0.03     0.17  -0.03   0.16
    14   6    -0.14   0.02  -0.13     0.05   0.11  -0.03    -0.17   0.03  -0.16
    15   1    -0.05  -0.10   0.02    -0.20  -0.08  -0.12     0.12   0.05   0.07
    16   1    -0.05  -0.10   0.02     0.20   0.08   0.12    -0.12  -0.05  -0.07
    17   1     0.01  -0.19   0.13    -0.00  -0.18   0.11     0.08   0.26  -0.09
    18   1     0.01  -0.19   0.13     0.00   0.18  -0.11    -0.08  -0.26   0.09
    19   1     0.17   0.16   0.04     0.14   0.15   0.02     0.14   0.25  -0.04
    20   1     0.17   0.16   0.04    -0.14  -0.15  -0.02    -0.14  -0.25   0.04
    21   1     0.04   0.10  -0.03    -0.11   0.14  -0.18    -0.06   0.08  -0.10
    22   1     0.04   0.10  -0.03     0.11  -0.14   0.18     0.06  -0.08   0.10
    23   1     0.31  -0.06   0.30    -0.05  -0.11   0.03    -0.23   0.04  -0.22
    24   1     0.31  -0.06   0.30     0.05   0.11  -0.03     0.23  -0.04   0.22
                     55                     56                     57
                     AG                     AU                     AU
 Frequencies --   1676.3394              1678.7424              3154.4713
 Red. masses --      6.0293                 5.6364                 1.0885
 Frc consts  --      9.9825                 9.3588                 6.3814
 IR Inten    --      0.0000                 6.9264                 8.8804
  Atom  AN      X      Y      Z        X      Y      Z        X      Y      Z
     1   6    -0.14   0.05  -0.15     0.09  -0.02   0.09    -0.00   0.00  -0.00
     2   6     0.14  -0.05   0.15     0.09  -0.02   0.09    -0.00   0.00  -0.00
     3   6     0.11  -0.05   0.13    -0.14   0.07  -0.16     0.01   0.02  -0.00
     4   6    -0.11   0.05  -0.13    -0.14   0.07  -0.16     0.01   0.02  -0.00
     5   6    -0.06   0.07  -0.09     0.09  -0.10   0.13    -0.01  -0.00  -0.01
     6   6     0.06  -0.07   0.09     0.09  -0.10   0.13    -0.01  -0.00  -0.01
     7   6     0.10   0.04   0.06    -0.15  -0.06  -0.09     0.00  -0.01   0.01
     8   6    -0.10  -0.04  -0.06    -0.15  -0.06  -0.09     0.00  -0.01   0.01
     9   6    -0.14  -0.01  -0.11     0.18   0.02   0.14     0.01   0.02  -0.00
    10   6     0.14   0.01   0.11     0.18   0.02   0.14     0.01   0.02  -0.00
    11   6     0.16  -0.01   0.14    -0.10   0.01  -0.09     0.00   0.00   0.00
    12   6    -0.16   0.01  -0.14    -0.10   0.01  -0.09     0.00   0.00   0.00
    13   6     0.16  -0.03   0.15     0.01   0.02  -0.01    -0.02  -0.05   0.01
    14   6    -0.16   0.03  -0.15     0.01   0.02  -0.01    -0.02  -0.05   0.01
    15   1    -0.19  -0.01  -0.15     0.22   0.02   0.17    -0.08  -0.19   0.05
    16   1     0.19   0.01   0.15     0.22   0.02   0.17    -0.08  -0.19   0.05
    17   1    -0.06  -0.15   0.04     0.09   0.23  -0.07     0.11   0.04   0.06
    18   1     0.06   0.15  -0.04     0.09   0.23  -0.07     0.11   0.04   0.06
    19   1    -0.07  -0.15   0.04     0.11   0.23  -0.06    -0.06   0.07  -0.10
    20   1     0.07   0.15  -0.04     0.11   0.23  -0.06    -0.06   0.07  -0.10
    21   1     0.16  -0.07   0.17    -0.17   0.09  -0.20    -0.08  -0.19   0.05
    22   1    -0.16   0.07  -0.17    -0.17   0.09  -0.20    -0.08  -0.19   0.05
    23   1    -0.22   0.04  -0.21     0.01   0.03  -0.01     0.23   0.54  -0.14
    24   1     0.22  -0.04   0.21     0.01   0.03  -0.01     0.23   0.54  -0.14
                     58                     59                     60
                     AG                     AG                     AU
 Frequencies --   3156.4964              3158.2798              3159.4901
 Red. masses --      1.0899                 1.0856                 1.0868
 Frc consts  --      6.3981                 6.3800                 6.3921
 IR Inten    --      0.0000                 0.0000                20.5198
  Atom  AN      X      Y      Z        X      Y      Z        X      Y      Z
     1   6    -0.00   0.00  -0.00     0.00   0.00   0.00    -0.00   0.00  -0.00
     2   6     0.00  -0.00   0.00    -0.00  -0.00  -0.00    -0.00   0.00  -0.00
     3   6     0.01   0.02  -0.00    -0.01  -0.03   0.01    -0.01  -0.02   0.01
     4   6    -0.01  -0.02   0.00     0.01   0.03  -0.01    -0.01  -0.02   0.01
     5   6    -0.00  -0.00  -0.00     0.02   0.01   0.01     0.02   0.01   0.01
     6   6     0.00   0.00   0.00    -0.02  -0.01  -0.01     0.02   0.01   0.01
     7   6    -0.00   0.00  -0.00    -0.01   0.02  -0.02    -0.01   0.01  -0.02
     8   6     0.00  -0.00   0.00     0.01  -0.02   0.02    -0.01   0.01  -0.02
     9   6    -0.01  -0.01   0.00    -0.01  -0.03   0.01    -0.01  -0.02   0.01
    10   6     0.01   0.01  -0.00     0.01   0.03  -0.01    -0.01  -0.02   0.01
    11   6    -0.00   0.00  -0.00    -0.00   0.00  -0.00     0.00   0.00   0.00
    12   6     0.00  -0.00   0.00     0.00  -0.00   0.00     0.00   0.00   0.00
    13   6    -0.02  -0.05   0.01    -0.00  -0.00   0.00    -0.01  -0.03   0.01
    14   6     0.02   0.05  -0.01     0.00   0.00  -0.00    -0.01  -0.03   0.01
    15   1    -0.07  -0.17   0.05     0.15   0.34  -0.09     0.12   0.28  -0.07
    16   1     0.07   0.17  -0.05    -0.15  -0.34   0.09     0.12   0.28  -0.07
    17   1     0.05   0.02   0.03    -0.27  -0.11  -0.16    -0.25  -0.10  -0.15
    18   1    -0.05  -0.02  -0.03     0.27   0.11   0.16    -0.25  -0.10  -0.15
    19   1     0.03  -0.03   0.04     0.14  -0.18   0.23     0.13  -0.17   0.22
    20   1    -0.03   0.03  -0.04    -0.14   0.18  -0.23     0.13  -0.17   0.22
    21   1     0.07   0.17  -0.04     0.14   0.34  -0.09     0.11   0.27  -0.07
    22   1    -0.07  -0.17   0.04    -0.14  -0.34   0.09     0.11   0.27  -0.07
    23   1     0.25   0.57  -0.15     0.00   0.01  -0.00     0.13   0.31  -0.08
    24   1    -0.25  -0.57   0.15    -0.00  -0.01   0.00     0.13   0.31  -0.08
                     61                     62                     63
                     AU                     AG                     AG
 Frequencies --   3163.0585              3164.8723              3176.5740
 Red. masses --      1.0877                 1.0879                 1.0939
 Frc consts  --      6.4119                 6.4202                 6.5032
 IR Inten    --      0.2577                 0.0000                 0.0000
  Atom  AN      X      Y      Z        X      Y      Z        X      Y      Z
     1   6    -0.00   0.00  -0.00     0.00   0.00  -0.00     0.00   0.00   0.00
     2   6    -0.00   0.00  -0.00    -0.00  -0.00   0.00    -0.00  -0.00  -0.00
     3   6     0.02   0.03  -0.01     0.01   0.03  -0.01    -0.01  -0.03   0.01
     4   6     0.02   0.03  -0.01    -0.01  -0.03   0.01     0.01   0.03  -0.01
     5   6    -0.01  -0.01  -0.01    -0.01  -0.01  -0.01    -0.03  -0.01  -0.02
     6   6    -0.01  -0.01  -0.01     0.01   0.01   0.01     0.03   0.01   0.02
     7   6    -0.01   0.01  -0.01    -0.01   0.01  -0.01     0.02  -0.02   0.02
[...]
    59824.7956    0.975449D+03
    59832.7956    0.894960D+03
    59840.7956    0.818965D+03
    59848.7956    0.747939D+03
    59856.7956    0.681665D+03
    59864.7956    0.620117D+03
    59872.7956    0.563219D+03
    59880.7956    0.510855D+03
    59888.7956    0.462874D+03
    59896.7956    0.419085D+03
    59904.7956    0.379309D+03
    59912.7956    0.343314D+03
    59920.7956    0.310868D+03
    59928.7956    0.281729D+03
    59936.7956    0.255656D+03
    59944.7956    0.232411D+03
    59952.7956    0.211750D+03
    59960.7956    0.193463D+03
    59968.7956    0.177316D+03
    59976.7956    0.162778D+03
    59984.7956    0.150406D+03
    59992.7956    0.139578D+03
    60000.7956    0.130132D+03
    60008.7956    0.121916D+03
    60016.7956    0.114793D+03
    60024.7956    0.108642D+03
    60032.7956    0.103350D+03
    60040.7956    0.988132D+02
    60048.7956    0.949444D+02
    60056.7956    0.916579D+02
    60064.7956    0.888464D+02
    60072.7956    0.865350D+02
    60080.7956    0.846205D+02
    60088.7956    0.830485D+02
    60096.7956    0.817803D+02
    60104.7956    0.807783D+02
    60112.7956    0.800148D+02
    60120.7956    0.794654D+02
    60128.7956    0.790844D+02
    60136.7956    0.788925D+02
    60144.7956    0.785643D+02
    60152.7956    0.787289D+02
    60160.7956    0.789961D+02
    60168.7956    0.793589D+02
    60176.7956    0.798108D+02
    60184.7956    0.803505D+02
    60192.7956    0.809639D+02
    60200.7956    0.816495D+02
    60208.7956    0.823998D+02
    60216.7956    0.832275D+02
    60224.7956    0.841056D+02
    60232.7956    0.850410D+02
    60240.7956    0.860290D+02
    60248.7956    0.870691D+02
    60256.7956    0.881589D+02
    60264.7956    0.893002D+02
    60272.7956    0.904901D+02
    60280.7956    0.917345D+02
    60288.7956    0.930383D+02
    60296.7956    0.943813D+02
    60304.7956    0.958058D+02
    60312.7956    0.973002D+02
    60320.7956    0.988813D+02
    60328.7956    0.100533D+03
    60336.7956    0.102276D+03
    60344.7956    0.104117D+03
    60352.7956    0.106064D+03
    60360.7956    0.108129D+03
    60368.7956    0.110319D+03
    60376.7956    0.112642D+03
    60384.7956    0.115119D+03
    60392.7956    0.117740D+03
    60400.7956    0.120521D+03
    60408.7956    0.123469D+03
    60416.7956    0.126592D+03
    60424.7956    0.129892D+03
    60432.7956    0.133377D+03
    60440.7956    0.137047D+03
    60448.7956    0.140908D+03
    60456.7956    0.144985D+03
    60464.7956    0.149237D+03
    60472.7956    0.153682D+03
    60480.7956    0.158322D+03
    60488.7956    0.163169D+03
    60496.7956    0.168190D+03
    60504.7956    0.173396D+03
    60512.7956    0.178784D+03
    60520.7956    0.184347D+03
    60528.7956    0.190080D+03
    60536.7956    0.195977D+03
    60544.7956    0.202032D+03
    60552.7956    0.208234D+03
    60560.7956    0.214576D+03
    60568.7956    0.221051D+03
    60576.7956    0.227648D+03
    60584.7956    0.234358D+03
    60592.7956    0.241173D+03
    60600.7956    0.248085D+03
    60608.7956    0.255082D+03
    60616.7956    0.262155D+03
    60624.7956    0.269338D+03
    60632.7956    0.276551D+03
    60640.7956    0.283821D+03
    60648.7956    0.291139D+03
    60656.7956    0.298502D+03
    60664.7956    0.305905D+03
    60672.7956    0.313346D+03
    60680.7956    0.320821D+03
    60688.7956    0.328332D+03
    60696.7956    0.335878D+03
    60704.7956    0.343458D+03
    60712.7956    0.351079D+03
    60720.7956    0.358736D+03
    60728.7956    0.366431D+03
    60736.7956    0.374166D+03
    60744.7956    0.381941D+03
    60752.7956    0.389751D+03
    60760.7956    0.397600D+03
    60768.7956    0.405477D+03
    60776.7956    0.413379D+03
    60784.7956    0.421287D+03
    60792.7956    0.429214D+03
    60800.7956    0.437103D+03
    60808.7956    0.444952D+03
    60816.7956    0.452737D+03
    60824.7956    0.460432D+03
    60832.7956    0.468008D+03
    60840.7956    0.475436D+03
    60848.7956    0.482680D+03
    60856.7956    0.489708D+03
    60864.7956    0.496486D+03
    60872.7956    0.502975D+03
    60880.7956    0.509148D+03
    60888.7956    0.514968D+03
    60896.7956    0.520406D+03
    60904.7956    0.525435D+03
    60912.7956    0.530028D+03
    60920.7956    0.534165D+03
    60928.7956    0.537827D+03
    60936.7956    0.541000D+03
    60944.7956    0.543678D+03
    60952.7956    0.545847D+03
    60960.7956    0.547506D+03
    60968.7956    0.548654D+03
    60976.7956    0.549294D+03
    60984.7956    0.549430D+03
    60992.7956    0.549066D+03
    61000.7956    0.548208D+03
    61008.7956    0.546872D+03
    61016.7956    0.545062D+03
    61024.7956    0.542787D+03
    61032.7956    0.540053D+03
    61040.7956    0.536879D+03
    61048.7956    0.533269D+03
    61056.7956    0.529233D+03
    61064.7956    0.524778D+03
    61072.7956    0.519916D+03
    61080.7956    0.514656D+03
    61088.7956    0.509007D+03
    61096.7956    0.502980D+03
    61104.7956    0.496584D+03
    61112.7956    0.489836D+03
    61120.7956    0.482743D+03
    61128.7956    0.475319D+03
    61136.7956    0.467571D+03
    61144.7956    0.459523D+03
    61152.7956    0.451183D+03
    61160.7956    0.442563D+03
    61168.7956    0.433664D+03
    61176.7956    0.424528D+03
    61184.7956    0.415149D+03
    61192.7956    0.405541D+03
    61200.7956    0.395715D+03
    61208.7956    0.385684D+03
    61216.7956    0.375456D+03
    61224.7956    0.365047D+03
    61232.7956    0.354466D+03
    61240.7956    0.343722D+03
    61248.7956    0.332840D+03
    61256.7956    0.321828D+03
    61264.7956    0.310702D+03
    61272.7956    0.299470D+03
    61280.7956    0.288183D+03
    61288.7956    0.276845D+03
    61296.7956    0.265482D+03
    61304.7956    0.254120D+03
    61312.7956    0.242791D+03
    61320.7956    0.231525D+03
    61328.7956    0.220354D+03
    61336.7956    0.209302D+03
    61344.7956    0.198424D+03
    61352.7956    0.187741D+03
    61360.7956    0.177285D+03
    61368.7956    0.167084D+03
    61376.7956    0.157174D+03
    61384.7956    0.147577D+03
    61392.7956    0.138319D+03
    61400.7956    0.129419D+03
    61408.7956    0.120873D+03
    61416.7956    0.112747D+03
    61424.7956    0.105019D+03
    61432.7956    0.976959D+02
    61440.7956    0.907651D+02
    61448.7956    0.842656D+02
    61456.7956    0.781695D+02
    61464.7956    0.724719D+02
    61472.7956    0.671633D+02
    61480.7956    0.622327D+02
    61488.7956    0.576673D+02
    61496.7956    0.534492D+02
    61504.7956    0.495700D+02
    61512.7956    0.460092D+02
    61520.7956    0.427497D+02
    61528.7956    0.397736D+02
    61536.7956    0.370636D+02
    61544.7956    0.346030D+02
    61552.7956    0.323734D+02
    61560.7956    0.303586D+02
    61568.7956    0.285465D+02
    61576.7956    0.268823D+02
    61584.7956    0.254350D+02
    61592.7956    0.241410D+02
    61600.7956    0.229898D+02
    61608.7956    0.219692D+02
    61616.7956    0.210672D+02
    61624.7956    0.202750D+02
    61632.7956    0.195820D+02
    61640.7956    0.189795D+02
    61648.7956    0.184604D+02
    61656.7956    0.180153D+02
    61664.7956    0.176335D+02
    61672.7956    0.173190D+02
    61680.7956    0.170603D+02
    61688.7956    0.168513D+02
    61696.7956    0.166879D+02
    61704.7956    0.165655D+02
    61712.7956    0.164805D+02
    61720.7956    0.164306D+02
    61728.7956    0.164056D+02
    61736.7956    0.164168D+02
    61744.7956    0.164348D+02
    61752.7956    0.165013D+02
    61760.7956    0.165886D+02
    61768.7956    0.166955D+02
    61776.7956    0.168210D+02
    61784.7956    0.169647D+02
    61792.7956    0.171246D+02
    61800.7956    0.173004D+02
    61808.7956    0.174908D+02
    61816.7956    0.176973D+02
    61824.7956    0.179166D+02
    61832.7956    0.181492D+02
    61840.7956    0.183943D+02
    61848.7956    0.186517D+02
    61856.7956    0.189208D+02
    61864.7956    0.192016D+02
    61872.7956    0.194934D+02
    61880.7956    0.197967D+02
    61888.7956    0.201124D+02
    61896.7956    0.204356D+02
    61904.7956    0.207739D+02
    61912.7956    0.211242D+02
    61920.7956    0.214879D+02
    61928.7956    0.218630D+02
    61936.7956    0.222511D+02
    61944.7956    0.226532D+02
    61952.7956    0.230696D+02
    61960.7956    0.235011D+02
    61968.7956    0.239485D+02
    61976.7956    0.244121D+02
    61984.7956    0.248935D+02
    61992.7956    0.253917D+02
    62000.7956    0.259079D+02
    62008.7956    0.264421D+02
    62016.7956    0.269951D+02
    62024.7956    0.275662D+02
    62032.7956    0.281558D+02
    62040.7956    0.287634D+02
    62048.7956    0.293890D+02
    62056.7956    0.300345D+02
    62064.7956    0.306946D+02
    62072.7956    0.313709D+02
    62080.7956    0.320625D+02
    62088.7956    0.327693D+02
    62096.7956    0.334884D+02
    62104.7956    0.342198D+02
    62112.7956    0.349623D+02
    62120.7956    0.357148D+02
    62128.7956    0.364761D+02
    62136.7956    0.372450D+02
    62144.7956    0.380205D+02
    62152.7956    0.388019D+02
    62160.7956    0.395872D+02
    62168.7956    0.403757D+02
    62176.7956    0.411662D+02
    62184.7956    0.419577D+02
    62192.7956    0.427489D+02
    62200.7956    0.435393D+02
    62208.7956    0.443279D+02
    62216.7956    0.451126D+02
    62224.7956    0.458960D+02
    62232.7956    0.466717D+02
    62240.7956    0.474412D+02
    62248.7956    0.482032D+02
    62256.7956    0.489566D+02
    62264.7956    0.497006D+02
    62272.7956    0.504343D+02
    62280.7956    0.511568D+02
    62288.7956    0.518670D+02
    62296.7956    0.525647D+02
    62304.7956    0.532491D+02
    62312.7956    0.539194D+02
    62320.7956    0.545748D+02
    62328.7956    0.552149D+02
    62336.7956    0.558391D+02
    62344.7956    0.564476D+02
    62352.7956    0.570391D+02
    62360.7956    0.576140D+02
    62368.7956    0.581715D+02
    62376.7956    0.587117D+02
    62384.7956    0.592327D+02
    62392.7956    0.597355D+02
    62400.7956    0.602173D+02
    62408.7956    0.606780D+02
    62416.7956    0.611164D+02
    62424.7956    0.615314D+02
    62432.7956    0.619215D+02
    62440.7956    0.622849D+02
    62448.7956    0.626209D+02
    62456.7956    0.629273D+02
    62464.7956    0.632028D+02
    62472.7956    0.634455D+02
    62480.7956    0.636548D+02
    62488.7956    0.638291D+02
    62496.7956    0.639675D+02
    62504.7956    0.640692D+02
    62512.7956    0.641340D+02
    62520.7956    0.641617D+02
    62528.7956    0.641527D+02
    62536.7956    0.641074D+02
    62544.7956    0.640275D+02
    62552.7956    0.639134D+02
    62560.7956    0.637667D+02
    62568.7956    0.635890D+02
    62576.7956    0.633825D+02
    62584.7956    0.631488D+02
    62592.7956    0.628894D+02
    62600.7956    0.626052D+02
    62608.7956    0.623000D+02
    62616.7956    0.619735D+02
    62624.7956    0.616267D+02
    62632.7956    0.612595D+02
    62640.7956    0.608733D+02
    62648.7956    0.604669D+02
    62656.7956    0.600398D+02
    62664.7956    0.595906D+02
    62672.7956    0.591179D+02
    62680.7956    0.586199D+02
    62688.7956    0.580942D+02
    62696.7956    0.575383D+02
    62704.7956    0.569492D+02
    62712.7956    0.563256D+02
    62720.7956    0.556639D+02
    62728.7956    0.549614D+02
    62736.7956    0.542152D+02
    62744.7956    0.534244D+02
    62752.7956    0.525865D+02
    62760.7956    0.516998D+02
    62768.7956    0.507619D+02
    62776.7956    0.497757D+02
    62784.7956    0.487389D+02
    62792.7956    0.476524D+02
    62800.7956    0.465170D+02
    62808.7956    0.453347D+02
    62816.7956    0.441075D+02
    62824.7956    0.428384D+02
    62832.7956    0.415306D+02
    62840.7956    0.401869D+02
    62848.7956    0.388144D+02
    62856.7956    0.374163D+02
    62864.7956    0.359973D+02
    62872.7956    0.345619D+02
    62880.7956    0.331191D+02
    62888.7956    0.316723D+02
    62896.7956    0.302276D+02
    62904.7956    0.287907D+02
    62912.7956    0.273675D+02
    62920.7956    0.259634D+02
    62928.7956    0.245839D+02
    62936.7956    0.232332D+02
    62944.7956    0.219177D+02
    62952.7956    0.206404D+02
    62960.7956    0.194053D+02
    62968.7956    0.182152D+02
    62976.7956    0.170734D+02
    62984.7956    0.159816D+02
    62992.7956    0.149418D+02
    63000.7956    0.139545D+02
    63008.7956    0.130182D+02
    63016.7956    0.121390D+02
    63024.7956    0.113128D+02
    63032.7956    0.105385D+02
    63040.7956    0.981468D+01
    63048.7956    0.914211D+01
    63056.7956    0.851749D+01
    63064.7956    0.793912D+01
    63072.7956    0.740486D+01
    63080.7956    0.691253D+01
    63088.7956    0.645992D+01
    63096.7956    0.604472D+01
    63104.7956    0.566426D+01
    63112.7956    0.531713D+01
    63120.7956    0.500061D+01
    63128.7956    0.471254D+01
    63136.7956    0.445083D+01
    63144.7956    0.421364D+01
    63152.7956    0.399890D+01
    63160.7956    0.380443D+01
    63168.7956    0.363013D+01
    63176.7956    0.347077D+01
    63184.7956    0.333115D+01
    63192.7956    0.320611D+01
    63200.7956    0.309489D+01
    63208.7956    0.299624D+01
    63216.7956    0.290916D+01
    63224.7956    0.283260D+01
    63232.7956    0.276584D+01
    63240.7956    0.270806D+01
    63248.7956    0.265849D+01
    63256.7956    0.261601D+01
    63264.7956    0.258079D+01
    63272.7956    0.255255D+01
    63280.7956    0.253042D+01
    63288.7956    0.251365D+01
    63296.7956    0.250157D+01
    63304.7956    0.249453D+01
    63312.7956    0.249176D+01
    63320.7956    0.249285D+01
    63328.7956    0.249701D+01
    63336.7956    0.250579D+01
    63344.7956    0.251682D+01
    63352.7956    0.253215D+01
    63360.7956    0.255025D+01
    63368.7956    0.257099D+01
    63376.7956    0.259426D+01
    63384.7956    0.261999D+01
    63392.7956    0.264797D+01
    63400.7956    0.267815D+01
    63408.7956    0.271037D+01
    63416.7956    0.274469D+01
    63424.7956    0.278085D+01
    63432.7956    0.281879D+01
    63440.7956    0.285841D+01
    63448.7956    0.289962D+01
    63456.7956    0.294231D+01
    63464.7956    0.298643D+01
    63472.7956    0.303183D+01
    63480.7956    0.307848D+01
    63488.7956    0.312645D+01
    63496.7956    0.317512D+01
    63504.7956    0.322520D+01
    63512.7956    0.327631D+01
    63520.7956    0.332843D+01
    63528.7956    0.338138D+01
    63536.7956    0.343523D+01
    63544.7956    0.348998D+01
    63552.7956    0.354562D+01
    63560.7956    0.360216D+01
    63568.7956    0.365963D+01
    63576.7956    0.371803D+01
    63584.7956    0.377744D+01
    63592.7956    0.383779D+01
    63600.7956    0.389916D+01
    63608.7956    0.396153D+01
    63616.7956    0.402496D+01
    63624.7956    0.408938D+01
    63632.7956    0.415484D+01
    63640.7956    0.422131D+01
    63648.7956    0.428877D+01
    63656.7956    0.435738D+01
    63664.7956    0.442674D+01
    63672.7956    0.449694D+01
    63680.7956    0.456794D+01
    63688.7956    0.463967D+01
    63696.7956    0.471197D+01
    63704.7956    0.478481D+01
    63712.7956    0.485810D+01
    63720.7956    0.493176D+01
    63728.7956    0.500571D+01
    63736.7956    0.507988D+01
    63744.7956    0.515420D+01
    63752.7956    0.522860D+01
    63760.7956    0.530297D+01
    63768.7956    0.537727D+01
    63776.7956    0.545153D+01
    63784.7956    0.552563D+01
    63792.7956    0.559954D+01
    63800.7956    0.567331D+01
    63808.7956    0.574685D+01
    63816.7956    0.582022D+01
    63824.7956    0.589342D+01
    63832.7956    0.596619D+01
    63840.7956    0.603864D+01
    63848.7956    0.611071D+01
    63856.7956    0.618233D+01
    63864.7956    0.625349D+01
    63872.7956    0.632408D+01
    63880.7956    0.639406D+01
    63888.7956    0.646332D+01
    63896.7956    0.653182D+01
    63904.7956    0.659949D+01
    63912.7956    0.666615D+01
    63920.7956    0.673169D+01
    63928.7956    0.679598D+01
    63936.7956    0.685891D+01
    63944.7956    0.692047D+01
    63952.7956    0.698038D+01
    63960.7956    0.703861D+01
    63968.7956    0.709505D+01
    63976.7956    0.714959D+01
    63984.7956    0.720200D+01
    63992.7956    0.725225D+01
    64000.7956    0.730013D+01
    64008.7956    0.734554D+01
    64016.7956    0.738835D+01
    64024.7956    0.742840D+01
    64032.7956    0.746559D+01
    64040.7956    0.749968D+01
    64048.7956    0.753070D+01
    64056.7956    0.755841D+01
    64064.7956    0.758270D+01
    64072.7956    0.760340D+01
    64080.7956    0.762050D+01
    64088.7956    0.763386D+01
    64096.7956    0.764340D+01
    64104.7956    0.764906D+01
    64112.7956    0.765084D+01
    64120.7956    0.764872D+01
    64128.7956    0.764272D+01
    64136.7956    0.763287D+01
    64144.7956    0.761933D+01
    64152.7956    0.760212D+01
    64160.7956    0.758135D+01
    64168.7956    0.755715D+01
    64176.7956    0.752971D+01
    64184.7956    0.749916D+01
    64192.7956    0.746560D+01
    64200.7956    0.742908D+01
    64208.7956    0.738997D+01
    64216.7956    0.734820D+01
    64224.7956    0.730384D+01
    64232.7956    0.725688D+01
    64240.7956    0.720740D+01
    64248.7956    0.715527D+01
    64256.7956    0.710043D+01
    64264.7956    0.704270D+01
    64272.7956    0.698187D+01
    64280.7956    0.691784D+01
    64288.7956    0.685025D+01
    64296.7956    0.677882D+01
    64304.7956    0.670317D+01
    64312.7956    0.662316D+01
    64320.7956    0.653834D+01
    64328.7956    0.644837D+01
    64336.7956    0.635292D+01
    64344.7956    0.625179D+01
    64352.7956    0.614471D+01
    64360.7956    0.603147D+01
    64368.7956    0.591182D+01
    64376.7956    0.578598D+01
    64384.7956    0.565376D+01
    64392.7956    0.551529D+01
    64400.7956    0.537070D+01
    64408.7956    0.522030D+01
    64416.7956    0.506437D+01
    64424.7956    0.490339D+01
    64432.7956    0.473781D+01
    64440.7956    0.456810D+01
    64448.7956    0.439524D+01
    64456.7956    0.421972D+01
    64464.7956    0.404224D+01
 -----------------------------

 Leave Link  718 at Sat May 31 03:39:42 2025, MaxMem=  2147483648 cpu:              34.7 elap:              34.7
 (Enter /global/homes/r/rkang35/g16/l9999.exe)
 Dipole is zero, so no output in dipole orientation.

 ----------------------------------------------------------------------

 Electric dipole moment (input orientation):
 (Debye = 10**-18 statcoulomb cm , SI units = C m)
                  (au)            (Debye)         (10**-30 SI)
   Tot        0.000000D+00      0.000000D+00      0.000000D+00
   x          0.000000D+00      0.000000D+00      0.000000D+00
   y          0.000000D+00      0.000000D+00      0.000000D+00
   z          0.000000D+00      0.000000D+00      0.000000D+00

 Dipole polarizability, Alpha (input orientation).
 (esu units = cm**3 , SI units = C**2 m**2 J**-1)
 Alpha(0;0):
               (au)            (10**-24 esu)      (10**-40 SI)
   iso        0.162876D+03      0.241358D+02      0.268547D+02
   aniso      0.191373D+03      0.283586D+02      0.315532D+02
   xx         0.185081D+03      0.274261D+02      0.305157D+02
   yx         0.135754D+02      0.201167D+01      0.223828D+01
   yy         0.138654D+03      0.205463D+02      0.228609D+02
   zx         0.992856D+02      0.147126D+02      0.163700D+02
   zy        -0.402995D+02     -0.597177D+01     -0.664449D+01
   zz         0.164894D+03      0.244348D+02      0.271874D+02

 ----------------------------------------------------------------------

 This type of calculation cannot be archived.


 ACCORDING TO HEN3RY, LIFE IS MUCH LIKE A SEWER........
 YOU GET OUT OF IT JUST WHAT YOU PUT INTO IT...........
                         TOM LEHRER - (THE 3 IS SILENT)
 Job cpu time:       0 days  0 hours  0 minutes 34.9 seconds.
 Elapsed time:       0 days  0 hours  0 minutes 34.9 seconds.
 File lengths (MBytes):  RWF=      6 Int=      0 D2E=      0 Chk=      8 Scr=      1
 Normal termination of Gaussian 16 at Sat May 31 03:39:42 2025.
