phonopy:
  version: "2.36.0"
  frequency_unit_conversion_factor: 15.633302
  symmetry_tolerance: 1.00000e-05

space_group:
  type: "P-1"
  number: 2
  Hall_symbol: "-P 1"

supercell_matrix:
- [   3,   0,   0 ]
- [   0,   3,   0 ]
- [   0,   0,   2 ]

primitive_cell:
  lattice:
  - [     7.397706158727489,    -0.084058193927616,    -0.162436531995517 ] # a
  - [     0.756189373459381,     7.636593322294030,    -0.093933214107070 ] # b
  - [     2.946967635326306,    -0.329054024738366,    16.089843514754612 ] # c
  points:
  - symbol: Si # 1
    coordinates: [  0.251493207232738,  0.705324904080544,  0.323997295185167 ]
    mass: 28.085500
  - symbol: Si # 2
    coordinates: [  0.748506792767278,  0.294675095919436,  0.676002704814838 ]
    mass: 28.085500
  - symbol: C # 3
    coordinates: [  0.451328434008564,  0.939380975806941,  0.082142148134333 ]
    mass: 12.010700
  - symbol: C # 4
    coordinates: [  0.548671565991438,  0.060619024193073,  0.917857851865657 ]
    mass: 12.010700
  - symbol: C # 5
    coordinates: [  0.320325157059207,  0.046808253723070,  0.045693931137380 ]
    mass: 12.010700
  - symbol: C # 6
    coordinates: [  0.679674842940750,  0.953191746276949,  0.954306068862610 ]
    mass: 12.010700
  - symbol: C # 7
    coordinates: [  0.142745743186675,  0.095131502783483,  0.088874775089150 ]
    mass: 12.010700
  - symbol: C # 8
    coordinates: [  0.857254256813343,  0.904868497216532,  0.911125224910848 ]
    mass: 12.010700
  - symbol: C # 9
    coordinates: [  0.012067857823510,  0.197347657488678,  0.053720075630221 ]
    mass: 12.010700
  - symbol: C # 10
    coordinates: [  0.987932142176503,  0.802652342511330,  0.946279924369771 ]
    mass: 12.010700
  - symbol: C # 11
    coordinates: [  0.832552990532503,  0.247451410370720,  0.098199167311891 ]
    mass: 12.010700
  - symbol: C # 12
    coordinates: [  0.167447009467514,  0.752548589629278,  0.901800832688106 ]
    mass: 12.010700
  - symbol: C # 13
    coordinates: [  0.705805638587544,  0.346093877757710,  0.061688922853915 ]
    mass: 12.010700
  - symbol: C # 14
    coordinates: [  0.294194361412505,  0.653906122242282,  0.938311077146097 ]
    mass: 12.010700
  - symbol: C # 15
    coordinates: [  0.750667882517549,  0.399077686873315,  0.978369888536076 ]
    mass: 12.010700
  - symbol: C # 16
    coordinates: [  0.249332117482451,  0.600922313126677,  0.021630111463951 ]
    mass: 12.010700
  - symbol: C # 17
    coordinates: [  0.921370229342562,  0.354043046732996,  0.933561098256783 ]
    mass: 12.010700
  - symbol: C # 18
    coordinates: [  0.078629770657425,  0.645956953267035,  0.066438901743211 ]
    mass: 12.010700
  - symbol: C # 19
    coordinates: [  0.058315603250684,  0.252735480700218,  0.969255509513729 ]
    mass: 12.010700
  - symbol: C # 20
    coordinates: [  0.941684396749304,  0.747264519299799,  0.030744490486287 ]
    mass: 12.010700
  - symbol: C # 21
    coordinates: [  0.234602196815094,  0.206929015026937,  0.926151143052689 ]
    mass: 12.010700
  - symbol: C # 22
    coordinates: [  0.765397803184923,  0.793070984973088,  0.073848856947322 ]
    mass: 12.010700
  - symbol: C # 23
    coordinates: [  0.368437707319880,  0.106567891084623,  0.961987670033395 ]
    mass: 12.010700
  - symbol: C # 24
    coordinates: [  0.631562292680130,  0.893432108915360,  0.038012329966606 ]
    mass: 12.010700
  - symbol: C # 25
    coordinates: [  0.398487918620064,  0.872074916372486,  0.161181536667550 ]
    mass: 12.010700
  - symbol: C # 26
    coordinates: [  0.601512081379937,  0.127925083627485,  0.838818463332409 ]
    mass: 12.010700
  - symbol: C # 27
    coordinates: [  0.345766231511077,  0.807621316951122,  0.228128808914215 ]
    mass: 12.010700
  - symbol: C # 28
    coordinates: [  0.654233768488915,  0.192378683048917,  0.771871191085805 ]
    mass: 12.010700
  - symbol: C # 29
    coordinates: [  0.329767880074594,  0.461703065584779,  0.314954060538885 ]
    mass: 12.010700
  - symbol: C # 30
    coordinates: [  0.670232119925415,  0.538296934415199,  0.685045939461121 ]
    mass: 12.010700
  - symbol: C # 31
    coordinates: [  0.244671728323039,  0.367118853236528,  0.249163169830928 ]
    mass: 12.010700
  - symbol: C # 32
    coordinates: [  0.755328271676982,  0.632881146763463,  0.750836830169041 ]
    mass: 12.010700
  - symbol: C # 33
    coordinates: [  0.540066880431276,  0.428619207582003,  0.298475050402107 ]
    mass: 12.010700
  - symbol: C # 34
    coordinates: [  0.459933119568706,  0.571380792418055,  0.701524949597887 ]
    mass: 12.010700
  - symbol: C # 35
    coordinates: [  0.351685153772312,  0.811590351266021,  0.410548433203537 ]
    mass: 12.010700
  - symbol: C # 36
    coordinates: [  0.648314846227711,  0.188409648733970,  0.589451566796451 ]
    mass: 12.010700
  - symbol: C # 37
    coordinates: [  0.320797829528692,  0.717238622072444,  0.492818405985327 ]
    mass: 12.010700
  - symbol: C # 38
    coordinates: [  0.679202170471327,  0.282761377927565,  0.507181594014676 ]
    mass: 12.010700
  - symbol: C # 39
    coordinates: [  0.291918193810827,  0.007678453210345,  0.422748302698449 ]
    mass: 12.010700
  - symbol: C # 40
    coordinates: [  0.708081806189180,  0.992321546789661,  0.577251697301556 ]
    mass: 12.010700
  - symbol: C # 41
    coordinates: [  0.990765789927382,  0.735225249177160,  0.333081288494359 ]
    mass: 12.010700
  - symbol: C # 42
    coordinates: [  0.009234210072595,  0.264774750822821,  0.666918711505612 ]
    mass: 12.010700
  - symbol: C # 43
    coordinates: [  0.898512049854928,  0.648789672407884,  0.410824227214850 ]
    mass: 12.010700
  - symbol: C # 44
    coordinates: [  0.101487950145078,  0.351210327592115,  0.589175772785125 ]
    mass: 12.010700
  - symbol: C # 45
    coordinates: [  0.908109434218440,  0.923888348454275,  0.326289253675616 ]
    mass: 12.010700
  - symbol: C # 46
    coordinates: [  0.091890565781555,  0.076111651545723,  0.673710746324388 ]
    mass: 12.010700
  - symbol: H # 47
    coordinates: [  0.106747581917886,  0.049441917184765,  0.151612888519603 ]
    mass: 1.007940
  - symbol: H # 48
    coordinates: [  0.893252418082100,  0.950558082815232,  0.848387111480406 ]
    mass: 1.007940
  - symbol: H # 49
    coordinates: [  0.798101524248117,  0.204231294765831,  0.161565307952176 ]
    mass: 1.007940
  - symbol: H # 50
    coordinates: [  0.201898475751869,  0.795768705234183,  0.838434692047851 ]
    mass: 1.007940
  - symbol: H # 51
    coordinates: [  0.569146716111266,  0.382854529511518,  0.096336129730345 ]
    mass: 1.007940
  - symbol: H # 52
    coordinates: [  0.430853283888735,  0.617145470488485,  0.903663870269645 ]
    mass: 1.007940
  - symbol: H # 53
    coordinates: [  0.647810063100922,  0.477210007154614,  0.950502488881775 ]
    mass: 1.007940
  - symbol: H # 54
    coordinates: [  0.352189936899097,  0.522789992845365,  0.049497511118249 ]
    mass: 1.007940
  - symbol: H # 55
    coordinates: [  0.955685998272877,  0.395758836611961,  0.869980940474876 ]
    mass: 1.007940
  - symbol: H # 56
    coordinates: [  0.044314001727138,  0.604241163388038,  0.130019059525104 ]
    mass: 1.007940
  - symbol: H # 57
    coordinates: [  0.270940966851285,  0.249843299931825,  0.862824964796982 ]
    mass: 1.007940
  - symbol: H # 58
    coordinates: [  0.729059033148708,  0.750156700068170,  0.137175035203017 ]
    mass: 1.007940
  - symbol: H # 59
    coordinates: [  0.279686107227796,  0.408099577909464,  0.375919748632718 ]
    mass: 1.007940
  - symbol: H # 60
    coordinates: [  0.720313892772168,  0.591900422090512,  0.624080251367275 ]
    mass: 1.007940
  - symbol: H # 61
    coordinates: [  0.279644139296566,  0.423659536527764,  0.187892752467578 ]
    mass: 1.007940
  - symbol: H # 62
    coordinates: [  0.720355860703450,  0.576340463472228,  0.812107247532396 ]
    mass: 1.007940
  - symbol: H # 63
    coordinates: [  0.093948037148266,  0.373626107312220,  0.263717264699402 ]
    mass: 1.007940
  - symbol: H # 64
    coordinates: [  0.906051962851744,  0.626373892687800,  0.736282735300589 ]
    mass: 1.007940
  - symbol: H # 65
    coordinates: [  0.296273265895648,  0.227747578250423,  0.242957647549819 ]
    mass: 1.007940
  - symbol: H # 66
    coordinates: [  0.703726734104354,  0.772252421749543,  0.757042352450190 ]
    mass: 1.007940
  - symbol: H # 67
    coordinates: [  0.582991497373113,  0.287114498504754,  0.293818041474190 ]
    mass: 1.007940
  - symbol: H # 68
    coordinates: [  0.417008502626874,  0.712885501495228,  0.706181958525800 ]
    mass: 1.007940
  - symbol: H # 69
    coordinates: [  0.603955689743779,  0.484178214953612,  0.347877833626596 ]
    mass: 1.007940
  - symbol: H # 70
    coordinates: [  0.396044310256233,  0.515821785046372,  0.652122166373421 ]
    mass: 1.007940
  - symbol: H # 71
    coordinates: [  0.598108331124278,  0.485880968665315,  0.239895933503073 ]
    mass: 1.007940
  - symbol: H # 72
    coordinates: [  0.401891668875693,  0.514119031334701,  0.760104066496911 ]
    mass: 1.007940
  - symbol: H # 73
    coordinates: [  0.500808974433111,  0.797916788119069,  0.386786891958825 ]
    mass: 1.007940
  - symbol: H # 74
    coordinates: [  0.499191025566892,  0.202083211880951,  0.613213108041162 ]
    mass: 1.007940
  - symbol: H # 75
    coordinates: [  0.397741150238547,  0.772112130626432,  0.537921212498645 ]
    mass: 1.007940
  - symbol: H # 76
    coordinates: [  0.602258849761426,  0.227887869373567,  0.462078787501365 ]
    mass: 1.007940
  - symbol: H # 77
    coordinates: [  0.363843722561103,  0.576526022384536,  0.485540381247664 ]
    mass: 1.007940
  - symbol: H # 78
    coordinates: [  0.636156277438864,  0.423473977615449,  0.514459618752345 ]
    mass: 1.007940
  - symbol: H # 79
    coordinates: [  0.175148450645023,  0.731159942913766,  0.521172580377188 ]
    mass: 1.007940
  - symbol: H # 80
    coordinates: [  0.824851549354986,  0.268840057086229,  0.478827419622847 ]
    mass: 1.007940
  - symbol: H # 81
    coordinates: [  0.144479620778403,  0.030722692506478,  0.447399291799484 ]
    mass: 1.007940
  - symbol: H # 82
    coordinates: [  0.855520379221618,  0.969277307493499,  0.552600708200510 ]
    mass: 1.007940
  - symbol: H # 83
    coordinates: [  0.317161454504243,  0.077698241648275,  0.364522169666422 ]
    mass: 1.007940
  - symbol: H # 84
    coordinates: [  0.682838545495733,  0.922301758351735,  0.635477830333596 ]
    mass: 1.007940
  - symbol: H # 85
    coordinates: [  0.365771120342791,  0.067980589465042,  0.467558745747758 ]
    mass: 1.007940
  - symbol: H # 86
    coordinates: [  0.634228879657150,  0.932019410534955,  0.532441254252240 ]
    mass: 1.007940
  - symbol: H # 87
    coordinates: [  0.964522943128430,  0.660391628683004,  0.278578180186796 ]
    mass: 1.007940
  - symbol: H # 88
    coordinates: [  0.035477056871576,  0.339608371316999,  0.721421819813211 ]
    mass: 1.007940
  - symbol: H # 89
    coordinates: [  0.948265914999469,  0.510134952325298,  0.413133589352492 ]
    mass: 1.007940
  - symbol: H # 90
    coordinates: [  0.051734085000544,  0.489865047674686,  0.586866410647486 ]
    mass: 1.007940
  - symbol: H # 91
    coordinates: [  0.748518177019355,  0.655556499398743,  0.413472762169278 ]
    mass: 1.007940
  - symbol: H # 92
    coordinates: [  0.251481822980628,  0.344443500601259,  0.586527237830741 ]
    mass: 1.007940
  - symbol: H # 93
    coordinates: [  0.923095194582098,  0.714267334739756,  0.467654693272397 ]
    mass: 1.007940
  - symbol: H # 94
    coordinates: [  0.076904805417919,  0.285732665260256,  0.532345306727619 ]
    mass: 1.007940
  - symbol: H # 95
    coordinates: [  0.980960912658652,  0.989201597727898,  0.273229305029175 ]
    mass: 1.007940
  - symbol: H # 96
    coordinates: [  0.019039087341333,  0.010798402272097,  0.726770694970805 ]
    mass: 1.007940
  - symbol: H # 97
    coordinates: [  0.913168608486362,  0.003307119659611,  0.382105830772315 ]
    mass: 1.007940
  - symbol: H # 98
    coordinates: [  0.086831391513655,  0.996692880340373,  0.617894169227671 ]
    mass: 1.007940
  - symbol: H # 99
    coordinates: [  0.762636280921322,  0.926761714046369,  0.318501606056736 ]
    mass: 1.007940
  - symbol: H # 100
    coordinates: [  0.237363719078655,  0.073238285953648,  0.681498393943268 ]
    mass: 1.007940
  reciprocal_lattice: # without 2pi
  - [     0.134475312392163,    -0.013622377276421,    -0.024908687960321 ] # a*
  - [     0.001539094001754,     0.130825480923387,     0.002393621217631 ] # b*
  - [     0.001366593491741,     0.000626238917655,     0.061913514493288 ] # c*

unit_cell:
  lattice:
  - [     7.397706158727490,    -0.084058193927616,    -0.162436531995517 ] # a
  - [     0.756189373459381,     7.636593322294031,    -0.093933214107070 ] # b
  - [     2.946967635326306,    -0.329054024738366,    16.089843514754612 ] # c
  points:
  - symbol: Si # 1
    coordinates: [  0.251493207232738,  0.705324904080544,  0.323997295185167 ]
    mass: 28.085500
    reduced_to: 1
  - symbol: Si # 2
    coordinates: [  0.748506792767278,  0.294675095919436,  0.676002704814838 ]
    mass: 28.085500
    reduced_to: 2
  - symbol: C # 3
    coordinates: [  0.451328434008564,  0.939380975806941,  0.082142148134333 ]
    mass: 12.010700
    reduced_to: 3
  - symbol: C # 4
    coordinates: [  0.548671565991438,  0.060619024193073,  0.917857851865657 ]
    mass: 12.010700
    reduced_to: 4
  - symbol: C # 5
    coordinates: [  0.320325157059207,  0.046808253723070,  0.045693931137380 ]
    mass: 12.010700
    reduced_to: 5
  - symbol: C # 6
    coordinates: [  0.679674842940750,  0.953191746276949,  0.954306068862610 ]
    mass: 12.010700
    reduced_to: 6
  - symbol: C # 7
    coordinates: [  0.142745743186675,  0.095131502783483,  0.088874775089150 ]
    mass: 12.010700
    reduced_to: 7
  - symbol: C # 8
    coordinates: [  0.857254256813343,  0.904868497216532,  0.911125224910848 ]
    mass: 12.010700
    reduced_to: 8
  - symbol: C # 9
    coordinates: [  0.012067857823510,  0.197347657488678,  0.053720075630221 ]
    mass: 12.010700
    reduced_to: 9
  - symbol: C # 10
    coordinates: [  0.987932142176504,  0.802652342511330,  0.946279924369771 ]
    mass: 12.010700
    reduced_to: 10
  - symbol: C # 11
    coordinates: [  0.832552990532503,  0.247451410370720,  0.098199167311891 ]
    mass: 12.010700
    reduced_to: 11
  - symbol: C # 12
    coordinates: [  0.167447009467514,  0.752548589629278,  0.901800832688106 ]
    mass: 12.010700
    reduced_to: 12
  - symbol: C # 13
    coordinates: [  0.705805638587544,  0.346093877757710,  0.061688922853915 ]
    mass: 12.010700
    reduced_to: 13
  - symbol: C # 14
    coordinates: [  0.294194361412505,  0.653906122242282,  0.938311077146097 ]
    mass: 12.010700
    reduced_to: 14
  - symbol: C # 15
    coordinates: [  0.750667882517549,  0.399077686873315,  0.978369888536076 ]
    mass: 12.010700
    reduced_to: 15
  - symbol: C # 16
    coordinates: [  0.249332117482451,  0.600922313126677,  0.021630111463951 ]
    mass: 12.010700
    reduced_to: 16
  - symbol: C # 17
    coordinates: [  0.921370229342562,  0.354043046732996,  0.933561098256783 ]
    mass: 12.010700
    reduced_to: 17
  - symbol: C # 18
    coordinates: [  0.078629770657425,  0.645956953267035,  0.066438901743211 ]
    mass: 12.010700
    reduced_to: 18
  - symbol: C # 19
    coordinates: [  0.058315603250684,  0.252735480700218,  0.969255509513729 ]
    mass: 12.010700
    reduced_to: 19
  - symbol: C # 20
    coordinates: [  0.941684396749304,  0.747264519299799,  0.030744490486287 ]
    mass: 12.010700
    reduced_to: 20
  - symbol: C # 21
    coordinates: [  0.234602196815094,  0.206929015026937,  0.926151143052689 ]
    mass: 12.010700
    reduced_to: 21
  - symbol: C # 22
    coordinates: [  0.765397803184923,  0.793070984973089,  0.073848856947322 ]
    mass: 12.010700
    reduced_to: 22
  - symbol: C # 23
    coordinates: [  0.368437707319881,  0.106567891084623,  0.961987670033395 ]
    mass: 12.010700
    reduced_to: 23
  - symbol: C # 24
    coordinates: [  0.631562292680130,  0.893432108915360,  0.038012329966606 ]
    mass: 12.010700
    reduced_to: 24
  - symbol: C # 25
    coordinates: [  0.398487918620064,  0.872074916372487,  0.161181536667550 ]
    mass: 12.010700
    reduced_to: 25
  - symbol: C # 26
    coordinates: [  0.601512081379937,  0.127925083627485,  0.838818463332409 ]
    mass: 12.010700
    reduced_to: 26
  - symbol: C # 27
    coordinates: [  0.345766231511077,  0.807621316951122,  0.228128808914215 ]
    mass: 12.010700
    reduced_to: 27
  - symbol: C # 28
    coordinates: [  0.654233768488915,  0.192378683048917,  0.771871191085805 ]
    mass: 12.010700
    reduced_to: 28
  - symbol: C # 29
    coordinates: [  0.329767880074594,  0.461703065584779,  0.314954060538885 ]
    mass: 12.010700
    reduced_to: 29
  - symbol: C # 30
    coordinates: [  0.670232119925415,  0.538296934415199,  0.685045939461121 ]
    mass: 12.010700
    reduced_to: 30
  - symbol: C # 31
    coordinates: [  0.244671728323039,  0.367118853236528,  0.249163169830928 ]
    mass: 12.010700
    reduced_to: 31
  - symbol: C # 32
    coordinates: [  0.755328271676982,  0.632881146763463,  0.750836830169041 ]
    mass: 12.010700
    reduced_to: 32
  - symbol: C # 33
    coordinates: [  0.540066880431276,  0.428619207582003,  0.298475050402107 ]
    mass: 12.010700
    reduced_to: 33
  - symbol: C # 34
    coordinates: [  0.459933119568706,  0.571380792418055,  0.701524949597887 ]
    mass: 12.010700
    reduced_to: 34
  - symbol: C # 35
    coordinates: [  0.351685153772312,  0.811590351266021,  0.410548433203537 ]
    mass: 12.010700
    reduced_to: 35
  - symbol: C # 36
    coordinates: [  0.648314846227711,  0.188409648733971,  0.589451566796451 ]
    mass: 12.010700
    reduced_to: 36
  - symbol: C # 37
    coordinates: [  0.320797829528692,  0.717238622072444,  0.492818405985327 ]
    mass: 12.010700
    reduced_to: 37
  - symbol: C # 38
    coordinates: [  0.679202170471327,  0.282761377927565,  0.507181594014676 ]
    mass: 12.010700
    reduced_to: 38
  - symbol: C # 39
    coordinates: [  0.291918193810827,  0.007678453210345,  0.422748302698449 ]
    mass: 12.010700
    reduced_to: 39
  - symbol: C # 40
    coordinates: [  0.708081806189180,  0.992321546789661,  0.577251697301556 ]
    mass: 12.010700
    reduced_to: 40
  - symbol: C # 41
    coordinates: [  0.990765789927382,  0.735225249177160,  0.333081288494359 ]
    mass: 12.010700
    reduced_to: 41
  - symbol: C # 42
    coordinates: [  0.009234210072595,  0.264774750822821,  0.666918711505612 ]
    mass: 12.010700
    reduced_to: 42
  - symbol: C # 43
    coordinates: [  0.898512049854928,  0.648789672407884,  0.410824227214850 ]
    mass: 12.010700
    reduced_to: 43
  - symbol: C # 44
    coordinates: [  0.101487950145078,  0.351210327592115,  0.589175772785125 ]
    mass: 12.010700
    reduced_to: 44
  - symbol: C # 45
    coordinates: [  0.908109434218440,  0.923888348454275,  0.326289253675616 ]
    mass: 12.010700
    reduced_to: 45
  - symbol: C # 46
    coordinates: [  0.091890565781555,  0.076111651545723,  0.673710746324388 ]
    mass: 12.010700
    reduced_to: 46
  - symbol: H # 47
    coordinates: [  0.106747581917886,  0.049441917184765,  0.151612888519603 ]
    mass: 1.007940
    reduced_to: 47
  - symbol: H # 48
    coordinates: [  0.893252418082100,  0.950558082815232,  0.848387111480406 ]
    mass: 1.007940
    reduced_to: 48
  - symbol: H # 49
    coordinates: [  0.798101524248117,  0.204231294765831,  0.161565307952176 ]
    mass: 1.007940
    reduced_to: 49
  - symbol: H # 50
    coordinates: [  0.201898475751869,  0.795768705234183,  0.838434692047851 ]
    mass: 1.007940
    reduced_to: 50
  - symbol: H # 51
    coordinates: [  0.569146716111266,  0.382854529511518,  0.096336129730345 ]
    mass: 1.007940
    reduced_to: 51
  - symbol: H # 52
    coordinates: [  0.430853283888735,  0.617145470488485,  0.903663870269645 ]
    mass: 1.007940
    reduced_to: 52
  - symbol: H # 53
    coordinates: [  0.647810063100922,  0.477210007154614,  0.950502488881775 ]
    mass: 1.007940
    reduced_to: 53
  - symbol: H # 54
    coordinates: [  0.352189936899097,  0.522789992845365,  0.049497511118249 ]
    mass: 1.007940
    reduced_to: 54
  - symbol: H # 55
    coordinates: [  0.955685998272877,  0.395758836611961,  0.869980940474876 ]
    mass: 1.007940
    reduced_to: 55
  - symbol: H # 56
    coordinates: [  0.044314001727138,  0.604241163388038,  0.130019059525104 ]
    mass: 1.007940
    reduced_to: 56
  - symbol: H # 57
    coordinates: [  0.270940966851285,  0.249843299931825,  0.862824964796982 ]
    mass: 1.007940
    reduced_to: 57
  - symbol: H # 58
    coordinates: [  0.729059033148708,  0.750156700068170,  0.137175035203017 ]
    mass: 1.007940
    reduced_to: 58
  - symbol: H # 59
    coordinates: [  0.279686107227796,  0.408099577909464,  0.375919748632718 ]
    mass: 1.007940
    reduced_to: 59
  - symbol: H # 60
    coordinates: [  0.720313892772168,  0.591900422090512,  0.624080251367275 ]
    mass: 1.007940
    reduced_to: 60
  - symbol: H # 61
    coordinates: [  0.279644139296566,  0.423659536527764,  0.187892752467578 ]
    mass: 1.007940
    reduced_to: 61
  - symbol: H # 62
    coordinates: [  0.720355860703450,  0.576340463472228,  0.812107247532396 ]
    mass: 1.007940
    reduced_to: 62
  - symbol: H # 63
    coordinates: [  0.093948037148266,  0.373626107312220,  0.263717264699402 ]
    mass: 1.007940
    reduced_to: 63
  - symbol: H # 64
    coordinates: [  0.906051962851744,  0.626373892687800,  0.736282735300589 ]
    mass: 1.007940
    reduced_to: 64
  - symbol: H # 65
    coordinates: [  0.296273265895648,  0.227747578250423,  0.242957647549819 ]
    mass: 1.007940
    reduced_to: 65
  - symbol: H # 66
    coordinates: [  0.703726734104354,  0.772252421749543,  0.757042352450190 ]
    mass: 1.007940
    reduced_to: 66
  - symbol: H # 67
    coordinates: [  0.582991497373113,  0.287114498504754,  0.293818041474190 ]
    mass: 1.007940
    reduced_to: 67
  - symbol: H # 68
    coordinates: [  0.417008502626874,  0.712885501495229,  0.706181958525800 ]
    mass: 1.007940
    reduced_to: 68
  - symbol: H # 69
    coordinates: [  0.603955689743779,  0.484178214953612,  0.347877833626596 ]
    mass: 1.007940
    reduced_to: 69
  - symbol: H # 70
    coordinates: [  0.396044310256233,  0.515821785046372,  0.652122166373421 ]
    mass: 1.007940
    reduced_to: 70
  - symbol: H # 71
    coordinates: [  0.598108331124278,  0.485880968665315,  0.239895933503073 ]
    mass: 1.007940
    reduced_to: 71
  - symbol: H # 72
    coordinates: [  0.401891668875693,  0.514119031334701,  0.760104066496911 ]
    mass: 1.007940
    reduced_to: 72
  - symbol: H # 73
    coordinates: [  0.500808974433111,  0.797916788119069,  0.386786891958825 ]
    mass: 1.007940
    reduced_to: 73
  - symbol: H # 74
    coordinates: [  0.499191025566892,  0.202083211880951,  0.613213108041162 ]
    mass: 1.007940
    reduced_to: 74
  - symbol: H # 75
    coordinates: [  0.397741150238547,  0.772112130626432,  0.537921212498645 ]
    mass: 1.007940
    reduced_to: 75
  - symbol: H # 76
    coordinates: [  0.602258849761426,  0.227887869373567,  0.462078787501365 ]
    mass: 1.007940
    reduced_to: 76
  - symbol: H # 77
    coordinates: [  0.363843722561103,  0.576526022384536,  0.485540381247664 ]
    mass: 1.007940
    reduced_to: 77
  - symbol: H # 78
    coordinates: [  0.636156277438864,  0.423473977615450,  0.514459618752345 ]
    mass: 1.007940
    reduced_to: 78
  - symbol: H # 79
    coordinates: [  0.175148450645023,  0.731159942913766,  0.521172580377188 ]
    mass: 1.007940
    reduced_to: 79
  - symbol: H # 80
    coordinates: [  0.824851549354986,  0.268840057086229,  0.478827419622847 ]
    mass: 1.007940
    reduced_to: 80
  - symbol: H # 81
    coordinates: [  0.144479620778403,  0.030722692506478,  0.447399291799484 ]
    mass: 1.007940
    reduced_to: 81
  - symbol: H # 82
    coordinates: [  0.855520379221618,  0.969277307493499,  0.552600708200510 ]
    mass: 1.007940
    reduced_to: 82
  - symbol: H # 83
    coordinates: [  0.317161454504243,  0.077698241648275,  0.364522169666422 ]
    mass: 1.007940
    reduced_to: 83
  - symbol: H # 84
    coordinates: [  0.682838545495733,  0.922301758351735,  0.635477830333596 ]
    mass: 1.007940
    reduced_to: 84
  - symbol: H # 85
    coordinates: [  0.365771120342791,  0.067980589465042,  0.467558745747758 ]
    mass: 1.007940
    reduced_to: 85
  - symbol: H # 86
    coordinates: [  0.634228879657150,  0.932019410534955,  0.532441254252240 ]
    mass: 1.007940
    reduced_to: 86
  - symbol: H # 87
    coordinates: [  0.964522943128430,  0.660391628683004,  0.278578180186796 ]
    mass: 1.007940
    reduced_to: 87
  - symbol: H # 88
    coordinates: [  0.035477056871576,  0.339608371316999,  0.721421819813211 ]
    mass: 1.007940
    reduced_to: 88
  - symbol: H # 89
    coordinates: [  0.948265914999469,  0.510134952325298,  0.413133589352492 ]
    mass: 1.007940
    reduced_to: 89
  - symbol: H # 90
    coordinates: [  0.051734085000545,  0.489865047674686,  0.586866410647486 ]
    mass: 1.007940
    reduced_to: 90
  - symbol: H # 91
    coordinates: [  0.748518177019355,  0.655556499398743,  0.413472762169278 ]
    mass: 1.007940
    reduced_to: 91
  - symbol: H # 92
    coordinates: [  0.251481822980628,  0.344443500601259,  0.586527237830741 ]
    mass: 1.007940
    reduced_to: 92
  - symbol: H # 93
    coordinates: [  0.923095194582099,  0.714267334739756,  0.467654693272397 ]
    mass: 1.007940
    reduced_to: 93
  - symbol: H # 94
    coordinates: [  0.076904805417919,  0.285732665260256,  0.532345306727619 ]
    mass: 1.007940
    reduced_to: 94
  - symbol: H # 95
    coordinates: [  0.980960912658652,  0.989201597727898,  0.273229305029175 ]
    mass: 1.007940
    reduced_to: 95
  - symbol: H # 96
    coordinates: [  0.019039087341333,  0.010798402272097,  0.726770694970805 ]
    mass: 1.007940
    reduced_to: 96
  - symbol: H # 97
    coordinates: [  0.913168608486362,  0.003307119659611,  0.382105830772315 ]
    mass: 1.007940
    reduced_to: 97
  - symbol: H # 98
    coordinates: [  0.086831391513656,  0.996692880340373,  0.617894169227671 ]
    mass: 1.007940
    reduced_to: 98
  - symbol: H # 99
    coordinates: [  0.762636280921322,  0.926761714046369,  0.318501606056736 ]
    mass: 1.007940
    reduced_to: 99
  - symbol: H # 100
    coordinates: [  0.237363719078655,  0.073238285953648,  0.681498393943268 ]
    mass: 1.007940
    reduced_to: 100

supercell:
  lattice:
  - [    22.193118476182470,    -0.252174581782847,    -0.487309595986552 ] # a
  - [     2.268568120378143,    22.909779966882091,    -0.281799642321210 ] # b
  - [     5.893935270652611,    -0.658108049476732,    32.179687029509225 ] # c
  points:
  - symbol: Si # 1
    coordinates: [  0.083831069077579,  0.235108301360181,  0.161998647592583 ]
    mass: 28.085500
    reduced_to: 1
  - symbol: Si # 2
    coordinates: [  0.417164402410913,  0.235108301360181,  0.161998647592583 ]
    mass: 28.085500
    reduced_to: 1
  - symbol: Si # 3
    coordinates: [  0.750497735744246,  0.235108301360181,  0.161998647592583 ]
    mass: 28.085500
    reduced_to: 1
  - symbol: Si # 4
    coordinates: [  0.083831069077579,  0.568441634693515,  0.161998647592583 ]
    mass: 28.085500
    reduced_to: 1
  - symbol: Si # 5
    coordinates: [  0.417164402410913,  0.568441634693515,  0.161998647592583 ]
    mass: 28.085500
    reduced_to: 1
  - symbol: Si # 6
    coordinates: [  0.750497735744246,  0.568441634693515,  0.161998647592583 ]
    mass: 28.085500
    reduced_to: 1
  - symbol: Si # 7
    coordinates: [  0.083831069077579,  0.901774968026848,  0.161998647592583 ]
    mass: 28.085500
    reduced_to: 1
  - symbol: Si # 8
    coordinates: [  0.417164402410913,  0.901774968026848,  0.161998647592583 ]
    mass: 28.085500
    reduced_to: 1
  - symbol: Si # 9
    coordinates: [  0.750497735744246,  0.901774968026848,  0.161998647592583 ]
    mass: 28.085500
    reduced_to: 1
  - symbol: Si # 10
    coordinates: [  0.083831069077579,  0.235108301360181,  0.661998647592583 ]
    mass: 28.085500
    reduced_to: 1
  - symbol: Si # 11
    coordinates: [  0.417164402410913,  0.235108301360181,  0.661998647592583 ]
    mass: 28.085500
    reduced_to: 1
  - symbol: Si # 12
    coordinates: [  0.750497735744246,  0.235108301360181,  0.661998647592583 ]
    mass: 28.085500
    reduced_to: 1
  - symbol: Si # 13
    coordinates: [  0.083831069077579,  0.568441634693515,  0.661998647592583 ]
    mass: 28.085500
    reduced_to: 1
  - symbol: Si # 14
    coordinates: [  0.417164402410913,  0.568441634693515,  0.661998647592583 ]
    mass: 28.085500
    reduced_to: 1
  - symbol: Si # 15
    coordinates: [  0.750497735744246,  0.568441634693515,  0.661998647592583 ]
    mass: 28.085500
    reduced_to: 1
  - symbol: Si # 16
    coordinates: [  0.083831069077579,  0.901774968026848,  0.661998647592583 ]
    mass: 28.085500
    reduced_to: 1
  - symbol: Si # 17
    coordinates: [  0.417164402410913,  0.901774968026848,  0.661998647592583 ]
    mass: 28.085500
    reduced_to: 1
  - symbol: Si # 18
    coordinates: [  0.750497735744246,  0.901774968026848,  0.661998647592583 ]
    mass: 28.085500
    reduced_to: 1
  - symbol: Si # 19
    coordinates: [  0.249502264255759,  0.098225031973145,  0.338001352407419 ]
    mass: 28.085500
    reduced_to: 19
  - symbol: Si # 20
    coordinates: [  0.582835597589093,  0.098225031973145,  0.338001352407419 ]
    mass: 28.085500
    reduced_to: 19
  - symbol: Si # 21
    coordinates: [  0.916168930922426,  0.098225031973145,  0.338001352407419 ]
    mass: 28.085500
    reduced_to: 19
  - symbol: Si # 22
    coordinates: [  0.249502264255759,  0.431558365306479,  0.338001352407419 ]
    mass: 28.085500
    reduced_to: 19
  - symbol: Si # 23